 vasp.6.1.1 19Jun20 (build Oct 02 2020 08:35:19) complex                        
  
 executed on             LinuxIFC date 2020.11.06  17:00:33
 running on   20 total cores
 distrk:  each k-point on   20 cores,    1 groups
 distr:  one band on NCORE=   5 cores,    4 groups


--------------------------------------------------------------------------------------------------------


 INCAR:
 POTCAR:   PAW_PBE Ni 06Sep2000                   
 POTCAR:   PAW_PBE Mn 06Sep2000                   
 POTCAR:   PAW_PBE Ga 08Apr2002                   
 POTCAR:   PAW_PBE Ni 06Sep2000                   
   VRHFIN =Ni:                                                                                      
   LEXCH  = PE                                                                                      
   EATOM  =  1077.9025 eV,   79.2236 Ry                                                             
                                                                                                    
   TITEL  = PAW_PBE Ni 06Sep2000                                                                    
   LULTRA =        F    use ultrasoft PP ?                                                          
   IUNSCR =        1    unscreen: 0-lin 1-nonlin 2-no                                               
   RPACOR =    2.000    partial core radius                                                         
   POMASS =   58.690; ZVAL   =   10.000    mass and valenz                                          
   RCORE  =    2.300    outmost cutoff radius                                                       
   RWIGS  =    2.430; RWIGS  =    1.286    wigner-seitz radius (au A)                               
   ENMAX  =  269.533; ENMIN  =  202.150 eV                                                          
   RCLOC  =    1.681    cutoff for local pot                                                        
   LCOR   =        T    correct aug charges                                                         
   LPAW   =        T    paw PP                                                                      
   EAUG   =  544.565                                                                                
   DEXC   =    -.009                                                                                
   RMAX   =    2.808    core radius for proj-oper                                                   
   RAUG   =    1.300    factor for augmentation sphere                                              
   RDEP   =    2.390    radius for radial grids                                                     
   QCUT   =   -4.451; QGAM   =    8.902    optimization parameters                                  
                                                                                                    
   Description                                                                                      
     l     E      TYP  RCUT    TYP  RCUT                                                            
     2   .000     23  2.300                                                                         
     2   .000     23  2.300                                                                         
     0   .000     23  2.300                                                                         
     0   .000     23  2.300                                                                         
     1  -.200     23  2.300                                                                         
     1   .000     23  2.300                                                                         
     3   .000      7   .000                                                                         
  local pseudopotential read in
  partial core-charges read in
  atomic valenz-charges read in
  non local Contribution for L=           2  read in
    real space projection operators read in
  non local Contribution for L=           2  read in
    real space projection operators read in
  non local Contribution for L=           0  read in
    real space projection operators read in
  non local Contribution for L=           0  read in
    real space projection operators read in
  non local Contribution for L=           1  read in
    real space projection operators read in
  non local Contribution for L=           1  read in
    real space projection operators read in
    PAW grid and wavefunctions read in
 
   number of l-projection  operators is LMAX  =           6
   number of lm-projection operators is LMMAX =          18
 
 POTCAR:   PAW_PBE Mn 06Sep2000                   
   VRHFIN =Mn: d6 s1                                                                                
   LEXCH  = PE                                                                                      
   EATOM  =   416.8732 eV,   30.6393 Ry                                                             
                                                                                                    
   TITEL  = PAW_PBE Mn 06Sep2000                                                                    
   LULTRA =        F    use ultrasoft PP ?                                                          
   IUNSCR =        1    unscreen: 0-lin 1-nonlin 2-no                                               
   RPACOR =    2.000    partial core radius                                                         
   POMASS =   54.938; ZVAL   =    7.000    mass and valenz                                          
   RCORE  =    2.300    outmost cutoff radius                                                       
   RWIGS  =    2.500; RWIGS  =    1.323    wigner-seitz radius (au A)                               
   ENMAX  =  269.865; ENMIN  =  202.399 eV                                                          
   RCLOC  =    1.725    cutoff for local pot                                                        
   LCOR   =        T    correct aug charges                                                         
   LPAW   =        T    paw PP                                                                      
   EAUG   =  500.711                                                                                
   DEXC   =    -.071                                                                                
   RMAX   =    2.807    core radius for proj-oper                                                   
   RAUG   =    1.300    factor for augmentation sphere                                              
   RDEP   =    2.338    radius for radial grids                                                     
   QCUT   =   -4.454; QGAM   =    8.907    optimization parameters                                  
                                                                                                    
   Description                                                                                      
     l     E      TYP  RCUT    TYP  RCUT                                                            
     2   .000     23  2.300                                                                         
     2   .000     23  2.300                                                                         
     0   .000     23  2.300                                                                         
     0   .000     23  2.300                                                                         
     1  -.200     23  2.300                                                                         
     1  1.500     23  2.300                                                                         
     3   .000      7   .000                                                                         
  local pseudopotential read in
  partial core-charges read in
  atomic valenz-charges read in
  non local Contribution for L=           2  read in
    real space projection operators read in
  non local Contribution for L=           2  read in
    real space projection operators read in
  non local Contribution for L=           0  read in
    real space projection operators read in
  non local Contribution for L=           0  read in
    real space projection operators read in
  non local Contribution for L=           1  read in
    real space projection operators read in
  non local Contribution for L=           1  read in
    real space projection operators read in
    PAW grid and wavefunctions read in
 
   number of l-projection  operators is LMAX  =           6
   number of lm-projection operators is LMMAX =          18
 
 POTCAR:   PAW_PBE Ga 08Apr2002                   
   VRHFIN =Ga: s2p1                                                                                 
   LEXCH  = PE                                                                                      
   EATOM  =    58.8688 eV,    4.3267 Ry                                                             
                                                                                                    
   TITEL  = PAW_PBE Ga 08Apr2002                                                                    
   LULTRA =        F    use ultrasoft PP ?                                                          
   IUNSCR =        1    unscreen: 0-lin 1-nonlin 2-no                                               
   RPACOR =    2.170    partial core radius                                                         
   POMASS =   69.723; ZVAL   =    3.000    mass and valenz                                          
   RCORE  =    2.600    outmost cutoff radius                                                       
   RWIGS  =    2.650; RWIGS  =    1.402    wigner-seitz radius (au A)                               
   ENMAX  =  134.678; ENMIN  =  101.009 eV                                                          
   ICORE  =        3    local potential                                                             
   LCOR   =        T    correct aug charges                                                         
   LPAW   =        T    paw PP                                                                      
   EAUG   =  320.264                                                                                
   DEXC   =    -.116                                                                                
   RMAX   =    3.973    core radius for proj-oper                                                   
   RAUG   =    1.300    factor for augmentation sphere                                              
   RDEP   =    2.684    radius for radial grids                                                     
   QCUT   =   -3.146; QGAM   =    6.292    optimization parameters                                  
                                                                                                    
   Description                                                                                      
     l     E      TYP  RCUT    TYP  RCUT                                                            
     0   .000     23  2.600                                                                         
     0   .000     23  2.600                                                                         
     1   .000     23  2.600                                                                         
     1   .000     23  2.600                                                                         
     2   .100     23  2.600                                                                         
     3  -.100      7  2.600                                                                         
  local pseudopotential read in
  partial core-charges read in
  atomic valenz-charges read in
  non local Contribution for L=           0  read in
    real space projection operators read in
  non local Contribution for L=           0  read in
    real space projection operators read in
  non local Contribution for L=           1  read in
    real space projection operators read in
  non local Contribution for L=           1  read in
    real space projection operators read in
  non local Contribution for L=           2  read in
    real space projection operators read in
    PAW grid and wavefunctions read in
 
   number of l-projection  operators is LMAX  =           5
   number of lm-projection operators is LMMAX =          13
 
 PAW_PBE Ni 06Sep2000                   :
 energy of atom  1       EATOM=-1077.9025
 kinetic energy error for atom=    0.0019 (will be added to EATOM!!)
 PAW_PBE Mn 06Sep2000                   :
 energy of atom  2       EATOM= -416.8732
 kinetic energy error for atom=    0.0016 (will be added to EATOM!!)
 PAW_PBE Ga 08Apr2002                   :
 energy of atom  3       EATOM=  -58.8688
 kinetic energy error for atom=    0.0000 (will be added to EATOM!!)
 
 
 POSCAR: Heusler tetragonal
  positions in direct lattice
  velocities in cartesian coordinates
 exchange correlation table for  LEXCH =        8
   RHO(1)=    0.500       N(1)  =     2000
   RHO(2)=  100.500       N(2)  =     4000
 


--------------------------------------------------------------------------------------------------------


 ion  position               nearest neighbor table
   1  0.250  0.250  0.250-   4 2.51   4 2.51   4 2.51   3 2.51   4 2.51   3 2.51   3 2.51   3 2.51
                             2 2.90   2 2.90   2 2.90   2 2.90   2 2.90   2 2.90
   2  0.750  0.750  0.750-   3 2.51   3 2.51   3 2.51   3 2.51   4 2.51   4 2.51   4 2.51   4 2.51
                             1 2.90   1 2.90   1 2.90   1 2.90   1 2.90   1 2.90
   3  0.500  0.500  0.500-   1 2.51   1 2.51   1 2.51   1 2.51   2 2.51   2 2.51   2 2.51   2 2.51
                             4 2.90   4 2.90   4 2.90   4 2.90   4 2.90   4 2.90
   4  0.000  0.000  0.000-   2 2.51   2 2.51   2 2.51   1 2.51   2 2.51   1 2.51   1 2.51   1 2.51
                             3 2.90   3 2.90   3 2.90   3 2.90   3 2.90   3 2.90
 
  LATTYP: Found a face centered cubic cell.
 ALAT       =     5.8071553138
  
  Lattice vectors:
  
 A1 = (   2.9035776569,   2.9035776569,   0.0000000000)
 A2 = (   0.0000000000,   2.9035776569,   2.9035776569)
 A3 = (   2.9035776569,   0.0000000000,   2.9035776569)


Analysis of symmetry for initial positions (statically):
=====================================================================
 Subroutine PRICEL returns:
 Original cell was already a primitive cell.
 

 Routine SETGRP: Setting up the symmetry group for a 
 face centered cubic supercell.


 Subroutine GETGRP returns: Found 48 space group operations
 (whereof 48 operations were pure point group operations)
 out of a pool of 48 trial point group operations.


The static configuration has the point symmetry O_h .


Analysis of symmetry for dynamics (positions and initial velocities):
=====================================================================
 Subroutine PRICEL returns:
 Original cell was already a primitive cell.
 

 Routine SETGRP: Setting up the symmetry group for a 
 face centered cubic supercell.


 Subroutine GETGRP returns: Found 48 space group operations
 (whereof 48 operations were pure point group operations)
 out of a pool of 48 trial point group operations.


The dynamic configuration has the point symmetry O_h .


Analysis of structural, dynamic, and magnetic symmetry:
=====================================================================
 Subroutine PRICEL returns:
 Original cell was already a primitive cell.
 

 Routine SETGRP: Setting up the symmetry group for a 
 face centered cubic supercell.


 Subroutine GETGRP returns: Found 48 space group operations
 (whereof 48 operations were pure point group operations)
 out of a pool of 48 trial point group operations.


The magnetic configuration has the point symmetry O_h .


 Subroutine INISYM returns: Found 48 space group operations
 (whereof 48 operations are pure point group operations),
 and found     1 'primitive' translations


----------------------------------------------------------------------------------------

                                     Primitive cell                                     

  volume of cell :      48.9588

  direct lattice vectors                    reciprocal lattice vectors
     2.903577657  2.903577657  0.000000000     0.172201353  0.172201353 -0.172201353
     0.000000000  2.903577657  2.903577657    -0.172201353  0.172201353  0.172201353
     2.903577657  0.000000000  2.903577657     0.172201353 -0.172201353  0.172201353

  length of vectors
     4.106278902  4.106278902  4.106278902     0.298261492  0.298261492  0.298261492

  position of ions in fractional coordinates (direct lattice)
     0.250000000  0.250000000  0.250000000
     0.750000000  0.750000000  0.750000000
     0.500000000  0.500000000  0.500000000
     0.000000000  0.000000000  0.000000000

  ion indices of the primitive-cell ions
   primitive index   ion index
                 1           1
                 2           2
                 3           3
                 4           4

----------------------------------------------------------------------------------------

 
 
 KPOINTS: KPOINTS created by Atomic Simulation Env

Automatic generation of k-mesh.
Space group operators:
 irot       det(A)        alpha          n_x          n_y          n_z        tau_x        tau_y        tau_z
    1     1.000000     0.000000     1.000000     0.000000     0.000000     0.000000     0.000000     0.000000
    2    -1.000000     0.000000     1.000000     0.000000     0.000000     0.000000     0.000000     0.000000
    3     1.000000   120.000000    -0.577350    -0.577350    -0.577350     0.000000     0.000000     0.000000
    4    -1.000000   120.000000    -0.577350    -0.577350    -0.577350     0.000000     0.000000     0.000000
    5     1.000000   120.000000     0.577350     0.577350     0.577350     0.000000     0.000000     0.000000
    6    -1.000000   120.000000     0.577350     0.577350     0.577350     0.000000     0.000000     0.000000
    7     1.000000    90.000000     0.000000    -1.000000     0.000000     0.000000     0.000000     0.000000
    8    -1.000000    90.000000     0.000000    -1.000000     0.000000     0.000000     0.000000     0.000000
    9     1.000000   180.000000     0.707107     0.707107     0.000000     0.000000     0.000000     0.000000
   10    -1.000000   180.000000     0.707107     0.707107     0.000000     0.000000     0.000000     0.000000
   11     1.000000    90.000000     1.000000     0.000000     0.000000     0.000000     0.000000     0.000000
   12    -1.000000    90.000000     1.000000     0.000000     0.000000     0.000000     0.000000     0.000000
   13     1.000000   180.000000     0.000000     1.000000     0.000000     0.000000     0.000000     0.000000
   14    -1.000000   180.000000     0.000000     1.000000     0.000000     0.000000     0.000000     0.000000
   15     1.000000   120.000000     0.577350     0.577350    -0.577350     0.000000     0.000000     0.000000
   16    -1.000000   120.000000     0.577350     0.577350    -0.577350     0.000000     0.000000     0.000000
   17     1.000000   120.000000     0.577350    -0.577350    -0.577350     0.000000     0.000000     0.000000
   18    -1.000000   120.000000     0.577350    -0.577350    -0.577350     0.000000     0.000000     0.000000
   19     1.000000    90.000000     0.000000     1.000000     0.000000     0.000000     0.000000     0.000000
   20    -1.000000    90.000000     0.000000     1.000000     0.000000     0.000000     0.000000     0.000000
   21     1.000000    90.000000     0.000000     0.000000    -1.000000     0.000000     0.000000     0.000000
   22    -1.000000    90.000000     0.000000     0.000000    -1.000000     0.000000     0.000000     0.000000
   23     1.000000   180.000000     0.000000     0.707107     0.707107     0.000000     0.000000     0.000000
   24    -1.000000   180.000000     0.000000     0.707107     0.707107     0.000000     0.000000     0.000000
   25     1.000000   120.000000    -0.577350     0.577350     0.577350     0.000000     0.000000     0.000000
   26    -1.000000   120.000000    -0.577350     0.577350     0.577350     0.000000     0.000000     0.000000
   27     1.000000   120.000000    -0.577350     0.577350    -0.577350     0.000000     0.000000     0.000000
   28    -1.000000   120.000000    -0.577350     0.577350    -0.577350     0.000000     0.000000     0.000000
   29     1.000000   180.000000     0.000000     0.000000     1.000000     0.000000     0.000000     0.000000
   30    -1.000000   180.000000     0.000000     0.000000     1.000000     0.000000     0.000000     0.000000
   31     1.000000    90.000000    -1.000000     0.000000     0.000000     0.000000     0.000000     0.000000
   32    -1.000000    90.000000    -1.000000     0.000000     0.000000     0.000000     0.000000     0.000000
   33     1.000000   180.000000     0.707107     0.000000     0.707107     0.000000     0.000000     0.000000
   34    -1.000000   180.000000     0.707107     0.000000     0.707107     0.000000     0.000000     0.000000
   35     1.000000    90.000000     0.000000     0.000000     1.000000     0.000000     0.000000     0.000000
   36    -1.000000    90.000000     0.000000     0.000000     1.000000     0.000000     0.000000     0.000000
   37     1.000000   120.000000    -0.577350    -0.577350     0.577350     0.000000     0.000000     0.000000
   38    -1.000000   120.000000    -0.577350    -0.577350     0.577350     0.000000     0.000000     0.000000
   39     1.000000   180.000000     1.000000     0.000000     0.000000     0.000000     0.000000     0.000000
   40    -1.000000   180.000000     1.000000     0.000000     0.000000     0.000000     0.000000     0.000000
   41     1.000000   120.000000     0.577350    -0.577350     0.577350     0.000000     0.000000     0.000000
   42    -1.000000   120.000000     0.577350    -0.577350     0.577350     0.000000     0.000000     0.000000
   43     1.000000   180.000000     0.707107    -0.707107     0.000000     0.000000     0.000000     0.000000
   44    -1.000000   180.000000     0.707107    -0.707107     0.000000     0.000000     0.000000     0.000000
   45     1.000000   180.000000     0.707107     0.000000    -0.707107     0.000000     0.000000     0.000000
   46    -1.000000   180.000000     0.707107     0.000000    -0.707107     0.000000     0.000000     0.000000
   47     1.000000   180.000000     0.000000    -0.707107     0.707107     0.000000     0.000000     0.000000
   48    -1.000000   180.000000     0.000000    -0.707107     0.707107     0.000000     0.000000     0.000000
 
 Subroutine IBZKPT returns following result:
 ===========================================
 
 Found    182 irreducible k-points:
 
 Following reciprocal coordinates:
            Coordinates               Weight
  0.041667  0.041667  0.041667      8.000000
  0.125000  0.041667  0.041667     24.000000
  0.208333  0.041667  0.041667     24.000000
  0.291667  0.041667  0.041667     24.000000
  0.375000  0.041667  0.041667     24.000000
  0.458333  0.041667  0.041667     24.000000
 -0.458333  0.041667  0.041667     24.000000
 -0.375000  0.041667  0.041667     24.000000
 -0.291667  0.041667  0.041667     24.000000
 -0.208333  0.041667  0.041667     24.000000
 -0.125000  0.041667  0.041667     24.000000
 -0.041667  0.041667  0.041667     24.000000
  0.125000  0.125000  0.041667     24.000000
  0.208333  0.125000  0.041667     48.000000
  0.291667  0.125000  0.041667     48.000000
  0.375000  0.125000  0.041667     48.000000
  0.458333  0.125000  0.041667     48.000000
 -0.458333  0.125000  0.041667     48.000000
 -0.375000  0.125000  0.041667     48.000000
 -0.291667  0.125000  0.041667     48.000000
 -0.208333  0.125000  0.041667     48.000000
 -0.125000  0.125000  0.041667     48.000000
 -0.041667  0.125000  0.041667     48.000000
  0.208333  0.208333  0.041667     24.000000
  0.291667  0.208333  0.041667     48.000000
  0.375000  0.208333  0.041667     48.000000
  0.458333  0.208333  0.041667     48.000000
 -0.458333  0.208333  0.041667     48.000000
 -0.375000  0.208333  0.041667     48.000000
 -0.291667  0.208333  0.041667     48.000000
 -0.208333  0.208333  0.041667     48.000000
 -0.125000  0.208333  0.041667     48.000000
 -0.041667  0.208333  0.041667     48.000000
  0.291667  0.291667  0.041667     24.000000
  0.375000  0.291667  0.041667     48.000000
  0.458333  0.291667  0.041667     48.000000
 -0.458333  0.291667  0.041667     48.000000
 -0.375000  0.291667  0.041667     48.000000
 -0.291667  0.291667  0.041667     48.000000
 -0.208333  0.291667  0.041667     48.000000
 -0.125000  0.291667  0.041667     48.000000
 -0.041667  0.291667  0.041667     48.000000
  0.375000  0.375000  0.041667     24.000000
  0.458333  0.375000  0.041667     48.000000
 -0.458333  0.375000  0.041667     48.000000
 -0.375000  0.375000  0.041667     48.000000
 -0.291667  0.375000  0.041667     48.000000
 -0.208333  0.375000  0.041667     48.000000
 -0.125000  0.375000  0.041667     48.000000
 -0.041667  0.375000  0.041667     48.000000
  0.458333  0.458333  0.041667     24.000000
 -0.458333  0.458333  0.041667     48.000000
 -0.375000  0.458333  0.041667     48.000000
 -0.291667  0.458333  0.041667     48.000000
 -0.208333  0.458333  0.041667     48.000000
 -0.125000  0.458333  0.041667     48.000000
 -0.041667  0.458333  0.041667     48.000000
 -0.458333 -0.458333  0.041667     24.000000
 -0.375000 -0.458333  0.041667     48.000000
 -0.291667 -0.458333  0.041667     48.000000
 -0.208333 -0.458333  0.041667     48.000000
 -0.125000 -0.458333  0.041667     48.000000
 -0.375000 -0.375000  0.041667     24.000000
 -0.291667 -0.375000  0.041667     48.000000
 -0.208333 -0.375000  0.041667     48.000000
 -0.125000 -0.375000  0.041667     48.000000
 -0.291667 -0.291667  0.041667     24.000000
 -0.208333 -0.291667  0.041667     48.000000
 -0.125000 -0.291667  0.041667     48.000000
 -0.208333 -0.208333  0.041667     24.000000
 -0.125000 -0.208333  0.041667     48.000000
 -0.125000 -0.125000  0.041667     24.000000
  0.125000  0.125000  0.125000      8.000000
  0.208333  0.125000  0.125000     24.000000
  0.291667  0.125000  0.125000     24.000000
  0.375000  0.125000  0.125000     24.000000
  0.458333  0.125000  0.125000     24.000000
 -0.458333  0.125000  0.125000     24.000000
 -0.375000  0.125000  0.125000     24.000000
 -0.291667  0.125000  0.125000     24.000000
 -0.208333  0.125000  0.125000     24.000000
 -0.125000  0.125000  0.125000     24.000000
  0.208333  0.208333  0.125000     24.000000
  0.291667  0.208333  0.125000     48.000000
  0.375000  0.208333  0.125000     48.000000
  0.458333  0.208333  0.125000     48.000000
 -0.458333  0.208333  0.125000     48.000000
 -0.375000  0.208333  0.125000     48.000000
 -0.291667  0.208333  0.125000     48.000000
 -0.208333  0.208333  0.125000     48.000000
 -0.125000  0.208333  0.125000     48.000000
  0.291667  0.291667  0.125000     24.000000
  0.375000  0.291667  0.125000     48.000000
  0.458333  0.291667  0.125000     48.000000
 -0.458333  0.291667  0.125000     48.000000
 -0.375000  0.291667  0.125000     48.000000
 -0.291667  0.291667  0.125000     48.000000
 -0.208333  0.291667  0.125000     48.000000
 -0.125000  0.291667  0.125000     48.000000
  0.375000  0.375000  0.125000     24.000000
  0.458333  0.375000  0.125000     48.000000
 -0.458333  0.375000  0.125000     48.000000
 -0.375000  0.375000  0.125000     48.000000
 -0.291667  0.375000  0.125000     48.000000
 -0.208333  0.375000  0.125000     48.000000
 -0.125000  0.375000  0.125000     48.000000
  0.458333  0.458333  0.125000     24.000000
 -0.458333  0.458333  0.125000     48.000000
 -0.375000  0.458333  0.125000     48.000000
 -0.291667  0.458333  0.125000     48.000000
 -0.208333  0.458333  0.125000     48.000000
 -0.125000  0.458333  0.125000     48.000000
 -0.458333 -0.458333  0.125000     24.000000
 -0.375000 -0.458333  0.125000     48.000000
 -0.291667 -0.458333  0.125000     48.000000
 -0.208333 -0.458333  0.125000     48.000000
 -0.375000 -0.375000  0.125000     24.000000
 -0.291667 -0.375000  0.125000     48.000000
 -0.208333 -0.375000  0.125000     48.000000
 -0.291667 -0.291667  0.125000     24.000000
 -0.208333 -0.291667  0.125000     48.000000
 -0.208333 -0.208333  0.125000     24.000000
  0.208333  0.208333  0.208333      8.000000
  0.291667  0.208333  0.208333     24.000000
  0.375000  0.208333  0.208333     24.000000
  0.458333  0.208333  0.208333     24.000000
 -0.458333  0.208333  0.208333     24.000000
 -0.375000  0.208333  0.208333     24.000000
 -0.291667  0.208333  0.208333     24.000000
 -0.208333  0.208333  0.208333     24.000000
  0.291667  0.291667  0.208333     24.000000
  0.375000  0.291667  0.208333     48.000000
  0.458333  0.291667  0.208333     48.000000
 -0.458333  0.291667  0.208333     48.000000
 -0.375000  0.291667  0.208333     48.000000
 -0.291667  0.291667  0.208333     48.000000
 -0.208333  0.291667  0.208333     48.000000
  0.375000  0.375000  0.208333     24.000000
  0.458333  0.375000  0.208333     48.000000
 -0.458333  0.375000  0.208333     48.000000
 -0.375000  0.375000  0.208333     48.000000
 -0.291667  0.375000  0.208333     48.000000
 -0.208333  0.375000  0.208333     48.000000
  0.458333  0.458333  0.208333     24.000000
 -0.458333  0.458333  0.208333     48.000000
 -0.375000  0.458333  0.208333     48.000000
 -0.291667  0.458333  0.208333     48.000000
 -0.208333  0.458333  0.208333     48.000000
 -0.458333 -0.458333  0.208333     24.000000
 -0.375000 -0.458333  0.208333     48.000000
 -0.291667 -0.458333  0.208333     48.000000
 -0.375000 -0.375000  0.208333     24.000000
 -0.291667 -0.375000  0.208333     48.000000
 -0.291667 -0.291667  0.208333     24.000000
  0.291667  0.291667  0.291667      8.000000
  0.375000  0.291667  0.291667     24.000000
  0.458333  0.291667  0.291667     24.000000
 -0.458333  0.291667  0.291667     24.000000
 -0.375000  0.291667  0.291667     24.000000
 -0.291667  0.291667  0.291667     24.000000
  0.375000  0.375000  0.291667     24.000000
  0.458333  0.375000  0.291667     48.000000
 -0.458333  0.375000  0.291667     48.000000
 -0.375000  0.375000  0.291667     48.000000
 -0.291667  0.375000  0.291667     48.000000
  0.458333  0.458333  0.291667     24.000000
 -0.458333  0.458333  0.291667     48.000000
 -0.375000  0.458333  0.291667     48.000000
 -0.291667  0.458333  0.291667     48.000000
 -0.458333 -0.458333  0.291667     24.000000
 -0.375000 -0.458333  0.291667     48.000000
 -0.375000 -0.375000  0.291667     24.000000
  0.375000  0.375000  0.375000      8.000000
  0.458333  0.375000  0.375000     24.000000
 -0.458333  0.375000  0.375000     24.000000
 -0.375000  0.375000  0.375000     24.000000
  0.458333  0.458333  0.375000     24.000000
 -0.458333  0.458333  0.375000     48.000000
 -0.375000  0.458333  0.375000     48.000000
 -0.458333 -0.458333  0.375000     24.000000
  0.458333  0.458333  0.458333      8.000000
 -0.458333  0.458333  0.458333     24.000000
 
 Following cartesian coordinates:
            Coordinates               Weight
  0.007175  0.007175  0.007175      8.000000
  0.021525  0.021525 -0.007175     24.000000
  0.035875  0.035875 -0.021525     24.000000
  0.050225  0.050225 -0.035875     24.000000
  0.064576  0.064576 -0.050225     24.000000
  0.078926  0.078926 -0.064576     24.000000
 -0.078926 -0.078926  0.093276     24.000000
 -0.064576 -0.064576  0.078926     24.000000
 -0.050225 -0.050225  0.064576     24.000000
 -0.035875 -0.035875  0.050225     24.000000
 -0.021525 -0.021525  0.035875     24.000000
 -0.007175 -0.007175  0.021525     24.000000
  0.007175  0.035875  0.007175     24.000000
  0.021525  0.050225 -0.007175     48.000000
  0.035875  0.064576 -0.021525     48.000000
  0.050225  0.078926 -0.035875     48.000000
  0.064576  0.093276 -0.050225     48.000000
 -0.093276 -0.064576  0.107626     48.000000
 -0.078926 -0.050225  0.093276     48.000000
 -0.064576 -0.035875  0.078926     48.000000
 -0.050225 -0.021525  0.064576     48.000000
 -0.035875 -0.007175  0.050225     48.000000
 -0.021525  0.007175  0.035875     48.000000
  0.007175  0.064576  0.007175     24.000000
  0.021525  0.078926 -0.007175     48.000000
  0.035875  0.093276 -0.021525     48.000000
  0.050225  0.107626 -0.035875     48.000000
 -0.107626 -0.050225  0.121976     48.000000
 -0.093276 -0.035875  0.107626     48.000000
 -0.078926 -0.021525  0.093276     48.000000
 -0.064576 -0.007175  0.078926     48.000000
 -0.050225  0.007175  0.064576     48.000000
 -0.035875  0.021525  0.050225     48.000000
  0.007175  0.093276  0.007175     24.000000
  0.021525  0.107626 -0.007175     48.000000
  0.035875  0.121976 -0.021525     48.000000
 -0.121976 -0.035875  0.136326     48.000000
 -0.107626 -0.021525  0.121976     48.000000
 -0.093276 -0.007175  0.107626     48.000000
 -0.078926  0.007175  0.093276     48.000000
 -0.064576  0.021525  0.078926     48.000000
 -0.050225  0.035875  0.064576     48.000000
  0.007175  0.121976  0.007175     24.000000
  0.021525  0.136326 -0.007175     48.000000
 -0.136326 -0.021525  0.150676     48.000000
 -0.121976 -0.007175  0.136326     48.000000
 -0.107626  0.007175  0.121976     48.000000
 -0.093276  0.021525  0.107626     48.000000
 -0.078926  0.035875  0.093276     48.000000
 -0.064576  0.050225  0.078926     48.000000
  0.007175  0.150676  0.007175     24.000000
 -0.150676 -0.007175  0.165026     48.000000
 -0.136326  0.007175  0.150676     48.000000
 -0.121976  0.021525  0.136326     48.000000
 -0.107626  0.035875  0.121976     48.000000
 -0.093276  0.050225  0.107626     48.000000
 -0.078926  0.064576  0.093276     48.000000
  0.007175 -0.165026  0.007175     24.000000
  0.021525 -0.150676 -0.007175     48.000000
  0.035875 -0.136326 -0.021525     48.000000
  0.050225 -0.121976 -0.035875     48.000000
  0.064576 -0.107626 -0.050225     48.000000
  0.007175 -0.136326  0.007175     24.000000
  0.021525 -0.121976 -0.007175     48.000000
  0.035875 -0.107626 -0.021525     48.000000
  0.050225 -0.093276 -0.035875     48.000000
  0.007175 -0.107626  0.007175     24.000000
  0.021525 -0.093276 -0.007175     48.000000
  0.035875 -0.078926 -0.021525     48.000000
  0.007175 -0.078926  0.007175     24.000000
  0.021525 -0.064576 -0.007175     48.000000
  0.007175 -0.050225  0.007175     24.000000
  0.021525  0.021525  0.021525      8.000000
  0.035875  0.035875  0.007175     24.000000
  0.050225  0.050225 -0.007175     24.000000
  0.064576  0.064576 -0.021525     24.000000
  0.078926  0.078926 -0.035875     24.000000
 -0.078926 -0.078926  0.121976     24.000000
 -0.064576 -0.064576  0.107626     24.000000
 -0.050225 -0.050225  0.093276     24.000000
 -0.035875 -0.035875  0.078926     24.000000
 -0.021525 -0.021525  0.064576     24.000000
  0.021525  0.050225  0.021525     24.000000
  0.035875  0.064576  0.007175     48.000000
  0.050225  0.078926 -0.007175     48.000000
  0.064576  0.093276 -0.021525     48.000000
 -0.093276 -0.064576  0.136326     48.000000
 -0.078926 -0.050225  0.121976     48.000000
 -0.064576 -0.035875  0.107626     48.000000
 -0.050225 -0.021525  0.093276     48.000000
 -0.035875 -0.007175  0.078926     48.000000
  0.021525  0.078926  0.021525     24.000000
  0.035875  0.093276  0.007175     48.000000
  0.050225  0.107626 -0.007175     48.000000
 -0.107626 -0.050225  0.150676     48.000000
 -0.093276 -0.035875  0.136326     48.000000
 -0.078926 -0.021525  0.121976     48.000000
 -0.064576 -0.007175  0.107626     48.000000
 -0.050225  0.007175  0.093276     48.000000
  0.021525  0.107626  0.021525     24.000000
  0.035875  0.121976  0.007175     48.000000
 -0.121976 -0.035875  0.165026     48.000000
 -0.107626 -0.021525  0.150676     48.000000
 -0.093276 -0.007175  0.136326     48.000000
 -0.078926  0.007175  0.121976     48.000000
 -0.064576  0.021525  0.107626     48.000000
  0.021525  0.136326  0.021525     24.000000
 -0.136326 -0.021525  0.179376     48.000000
 -0.121976 -0.007175  0.165026     48.000000
 -0.107626  0.007175  0.150676     48.000000
 -0.093276  0.021525  0.136326     48.000000
 -0.078926  0.035875  0.121976     48.000000
  0.021525 -0.179376  0.021525     24.000000
  0.035875 -0.165026  0.007175     48.000000
  0.050225 -0.150676 -0.007175     48.000000
  0.064576 -0.136326 -0.021525     48.000000
  0.021525 -0.150676  0.021525     24.000000
  0.035875 -0.136326  0.007175     48.000000
  0.050225 -0.121976 -0.007175     48.000000
  0.021525 -0.121976  0.021525     24.000000
  0.035875 -0.107626  0.007175     48.000000
  0.021525 -0.093276  0.021525     24.000000
  0.035875  0.035875  0.035875      8.000000
  0.050225  0.050225  0.021525     24.000000
  0.064576  0.064576  0.007175     24.000000
  0.078926  0.078926 -0.007175     24.000000
 -0.078926 -0.078926  0.150676     24.000000
 -0.064576 -0.064576  0.136326     24.000000
 -0.050225 -0.050225  0.121976     24.000000
 -0.035875 -0.035875  0.107626     24.000000
  0.035875  0.064576  0.035875     24.000000
  0.050225  0.078926  0.021525     48.000000
  0.064576  0.093276  0.007175     48.000000
 -0.093276 -0.064576  0.165026     48.000000
 -0.078926 -0.050225  0.150676     48.000000
 -0.064576 -0.035875  0.136326     48.000000
 -0.050225 -0.021525  0.121976     48.000000
  0.035875  0.093276  0.035875     24.000000
  0.050225  0.107626  0.021525     48.000000
 -0.107626 -0.050225  0.179376     48.000000
 -0.093276 -0.035875  0.165026     48.000000
 -0.078926 -0.021525  0.150676     48.000000
 -0.064576 -0.007175  0.136326     48.000000
  0.035875  0.121976  0.035875     24.000000
 -0.121976 -0.035875  0.193727     48.000000
 -0.107626 -0.021525  0.179376     48.000000
 -0.093276 -0.007175  0.165026     48.000000
 -0.078926  0.007175  0.150676     48.000000
  0.035875 -0.193727  0.035875     24.000000
  0.050225 -0.179376  0.021525     48.000000
  0.064576 -0.165026  0.007175     48.000000
  0.035875 -0.165026  0.035875     24.000000
  0.050225 -0.150676  0.021525     48.000000
  0.035875 -0.136326  0.035875     24.000000
  0.050225  0.050225  0.050225      8.000000
  0.064576  0.064576  0.035875     24.000000
  0.078926  0.078926  0.021525     24.000000
 -0.078926 -0.078926  0.179376     24.000000
 -0.064576 -0.064576  0.165026     24.000000
 -0.050225 -0.050225  0.150676     24.000000
  0.050225  0.078926  0.050225     24.000000
  0.064576  0.093276  0.035875     48.000000
 -0.093276 -0.064576  0.193727     48.000000
 -0.078926 -0.050225  0.179376     48.000000
 -0.064576 -0.035875  0.165026     48.000000
  0.050225  0.107626  0.050225     24.000000
 -0.107626 -0.050225  0.208077     48.000000
 -0.093276 -0.035875  0.193727     48.000000
 -0.078926 -0.021525  0.179376     48.000000
  0.050225 -0.208077  0.050225     24.000000
  0.064576 -0.193727  0.035875     48.000000
  0.050225 -0.179376  0.050225     24.000000
  0.064576  0.064576  0.064576      8.000000
  0.078926  0.078926  0.050225     24.000000
 -0.078926 -0.078926  0.208077     24.000000
 -0.064576 -0.064576  0.193727     24.000000
  0.064576  0.093276  0.064576     24.000000
 -0.093276 -0.064576  0.222427     48.000000
 -0.078926 -0.050225  0.208077     48.000000
  0.064576 -0.222427  0.064576     24.000000
  0.078926  0.078926  0.078926      8.000000
 -0.078926 -0.078926  0.236777     24.000000
 


--------------------------------------------------------------------------------------------------------




 Dimension of arrays:
   k-points           NKPTS =    182   k-points in BZ     NKDIM =    182   number of bands    NBANDS=     24
   number of dos      NEDOS =    301   number of ions     NIONS =      4
   non local maximal  LDIM  =      6   non local SUM 2l+1 LMDIM =     18
   total plane-waves  NPLWV =  21952
   max r-space proj   IRMAX =      1   max aug-charges    IRDMAX=  32421
   dimension x,y,z NGX =    28 NGY =   28 NGZ =   28
   dimension x,y,z NGXF=    56 NGYF=   56 NGZF=   56
   support grid    NGXF=    56 NGYF=   56 NGZF=   56
   ions per type =               2   1   1
   NGX,Y,Z   is equivalent  to a cutoff of  11.34, 11.34, 11.34 a.u.
   NGXF,Y,Z  is equivalent  to a cutoff of  22.67, 22.67, 22.67 a.u.

 SYSTEM =  unknown system                          
 POSCAR =  Heusler tetragonal                      

 Startparameter for this run:
   NWRITE =      2    write-flag & timer
   PREC   = normal    normal or accurate (medium, high low for compatibility)
   ISTART =      0    job   : 0-new  1-cont  2-samecut
   ICHARG =      2    charge: 1-file 2-atom 10-const
   ISPIN  =      2    spin polarized calculation?
   LNONCOLLINEAR =      F non collinear calculations
   LSORBIT =      F    spin-orbit coupling
   INIWAV =      1    electr: 0-lowe 1-rand  2-diag
   LASPH  =      F    aspherical Exc in radial PAW
   METAGGA=      F    non-selfconsistent MetaGGA calc.

 Electronic Relaxation 1
   ENCUT  =  600.0 eV  44.10 Ry    6.64 a.u.   8.20  8.20  8.20*2*pi/ulx,y,z
   ENINI  =  600.0     initial cutoff
   ENAUG  =  544.6 eV  augmentation charge cutoff
   NELM   =     60;   NELMIN=  2; NELMDL=  0     # of ELM steps 
   EDIFF  = 0.1E-06   stopping-criterion for ELM
   LREAL  =      F    real-space projection
   NLSPLINE    = F    spline interpolate recip. space projectors
   LCOMPAT=      F    compatible to vasp.4.4
   GGA_COMPAT  = T    GGA compatible to vasp.4.4-vasp.4.6
   LMAXPAW     = -100 max onsite density
   LMAXMIX     =    2 max onsite mixed and CHGCAR
   VOSKOWN=      0    Vosko Wilk Nusair interpolation
   ROPT   =    0.00000   0.00000   0.00000
 Ionic relaxation
   EDIFFG = -.1E-03   stopping-criterion for IOM
   NSW    =      0    number of steps for IOM
   NBLOCK =      1;   KBLOCK =      1    inner block; outer block 
   IBRION =     -1    ionic relax: 0-MD 1-quasi-New 2-CG
   NFREE  =      1    steps in history (QN), initial steepest desc. (CG)
   ISIF   =      7    stress and relaxation
   IWAVPR =     10    prediction:  0-non 1-charg 2-wave 3-comb
   ISYM   =      2    0-nonsym 1-usesym 2-fastsym
   LCORR  =      T    Harris-Foulkes like correction to forces

   POTIM  = 0.1000    time-step for ionic-motion
   TEIN   =    0.0    initial temperature
   TEBEG  =    0.0;   TEEND  =   0.0 temperature during run
   SMASS  =  -3.00    Nose mass-parameter (am)
   estimated Nose-frequenzy (Omega)   =  0.10E-29 period in steps = 0.63E+47 mass=  -0.385E-27a.u.
   SCALEE = 1.0000    scale energy and forces
   NPACO  =    256;   APACO  = 16.0  distance and # of slots for P.C.
   PSTRESS=    0.0 pullay stress

  Mass of Ions in am
   POMASS =  58.69 54.94 69.72
  Ionic Valenz
   ZVAL   =  10.00  7.00  3.00
  Atomic Wigner-Seitz radii
   RWIGS  =  -1.00 -1.00 -1.00
  virtual crystal weights 
   VCA    =   1.00  1.00  1.00
   NELECT =      30.0000    total number of electrons
   NUPDOWN=      -1.0000    fix difference up-down

 DOS related values:
   EMIN   =  10.00;   EMAX   =-10.00  energy-range for DOS
   EFERMI =   0.00
   ISMEAR =     1;   SIGMA  =   0.20  broadening in eV -4-tet -1-fermi 0-gaus

 Electronic relaxation 2 (details)
   IALGO  =     38    algorithm
   LDIAG  =      T    sub-space diagonalisation (order eigenvalues)
   LSUBROT=      F    optimize rotation matrix (better conditioning)
   TURBO    =      0    0=normal 1=particle mesh
   IRESTART =      0    0=no restart 2=restart with 2 vectors
   NREBOOT  =      0    no. of reboots
   NMIN     =      0    reboot dimension
   EREF     =   0.00    reference energy to select bands
   IMIX   =      4    mixing-type and parameters
     AMIX     =   0.40;   BMIX     =  1.00
     AMIX_MAG =   1.60;   BMIX_MAG =  1.00
     AMIN     =   0.10
     WC   =   100.;   INIMIX=   1;  MIXPRE=   1;  MAXMIX= -45

 Intra band minimization:
   WEIMIN = 0.0000     energy-eigenvalue tresh-hold
   EBREAK =  0.10E-08  absolut break condition
   DEPER  =   0.30     relativ break condition  

   TIME   =   0.40     timestep for ELM

  volume/ion in A,a.u.               =      12.24        82.60
  Fermi-wavevector in a.u.,A,eV,Ry     =   1.390503  2.627669 26.306830  1.933497
  Thomas-Fermi vector in A             =   2.514431
 
 Write flags
   LWAVE        =      F    write WAVECAR
   LDOWNSAMPLE  =      F    k-point downsampling of WAVECAR
   LCHARG       =      F    write CHGCAR
   LVTOT        =      F    write LOCPOT, total local potential
   LVHAR        =      F    write LOCPOT, Hartree potential only
   LELF         =      F    write electronic localiz. function (ELF)
   LORBIT       =     11    0 simple, 1 ext, 2 COOP (PROOUT), +10 PAW based schemes


 Dipole corrections
   LMONO  =      F    monopole corrections only (constant potential shift)
   LDIPOL =      F    correct potential (dipole corrections)
   IDIPOL =      0    1-x, 2-y, 3-z, 4-all directions 
   EPSILON=  1.0000000 bulk dielectric constant

 Exchange correlation treatment:
   GGA     =    --    GGA type
   LEXCH   =     8    internal setting for exchange type
   VOSKOWN=      0    Vosko Wilk Nusair interpolation
   LHFCALC =     F    Hartree Fock is set to
   LHFONE  =     F    Hartree Fock one center treatment
   AEXX    =    0.0000 exact exchange contribution

 Linear response parameters
   LEPSILON=     F    determine dielectric tensor
   LRPA    =     F    only Hartree local field effects (RPA)
   LNABLA  =     F    use nabla operator in PAW spheres
   LVEL    =     F    velocity operator in full k-point grid
   LINTERFAST=   F  fast interpolation
   KINTER  =     0    interpolate to denser k-point grid
   CSHIFT  =0.1000    complex shift for real part using Kramers Kronig
   OMEGAMAX=  -1.0    maximum frequency
   DEG_THRESHOLD= 0.2000000E-02 threshold for treating states as degnerate
   RTIME   =   -0.100 relaxation time in fs
  (WPLASMAI=    0.000 imaginary part of plasma frequency in eV, 0.658/RTIME)
   DFIELD  = 0.0000000 0.0000000 0.0000000 field for delta impulse in time
 
 Orbital magnetization related:
   ORBITALMAG=     F  switch on orbital magnetization
   LCHIMAG   =     F  perturbation theory with respect to B field
   DQ        =  0.001000  dq finite difference perturbation B field
   LLRAUG    =     F  two centre corrections for induced B field



--------------------------------------------------------------------------------------------------------


 Static calculation
 charge density and potential will be updated during run
 spin polarized calculation
 Variant of blocked Davidson
 Davidson routine will perform the subspace rotation
 perform sub-space diagonalisation
    after iterative eigenvector-optimisation
 modified Broyden-mixing scheme, WC =      100.0
 initial mixing is a Kerker type mixing with AMIX =  0.4000 and BMIX =      1.0000
 Hartree-type preconditioning will be used
 using additional bands            9
 reciprocal scheme for non local part
 use partial core corrections
 calculate Harris-corrections to forces 
   (improved forces if not selfconsistent)
 use gradient corrections 
 use of overlap-Matrix (Vanderbilt PP)
 Methfessel and Paxton  Order N= 1 SIGMA  =   0.20


--------------------------------------------------------------------------------------------------------


  energy-cutoff  :      600.00
  volume of cell :       48.96
      direct lattice vectors                 reciprocal lattice vectors
     2.903577657  2.903577657  0.000000000     0.172201353  0.172201353 -0.172201353
     0.000000000  2.903577657  2.903577657    -0.172201353  0.172201353  0.172201353
     2.903577657  0.000000000  2.903577657     0.172201353 -0.172201353  0.172201353

  length of vectors
     4.106278902  4.106278902  4.106278902     0.298261492  0.298261492  0.298261492


 
 k-points in units of 2pi/SCALE and weight: KPOINTS created by Atomic Simulation Env
   0.00717506  0.00717506  0.00717506       0.001
   0.02152517  0.02152517 -0.00717506       0.003
   0.03587528  0.03587528 -0.02152517       0.003
   0.05022539  0.05022539 -0.03587528       0.003
   0.06457551  0.06457551 -0.05022539       0.003
   0.07892562  0.07892562 -0.06457551       0.003
  -0.07892562 -0.07892562  0.09327573       0.003
  -0.06457551 -0.06457551  0.07892562       0.003
  -0.05022539 -0.05022539  0.06457551       0.003
  -0.03587528 -0.03587528  0.05022539       0.003
  -0.02152517 -0.02152517  0.03587528       0.003
  -0.00717506 -0.00717506  0.02152517       0.003
   0.00717506  0.03587528  0.00717506       0.003
   0.02152517  0.05022539 -0.00717506       0.007
   0.03587528  0.06457551 -0.02152517       0.007
   0.05022539  0.07892562 -0.03587528       0.007
   0.06457551  0.09327573 -0.05022539       0.007
  -0.09327573 -0.06457551  0.10762585       0.007
  -0.07892562 -0.05022539  0.09327573       0.007
  -0.06457551 -0.03587528  0.07892562       0.007
  -0.05022539 -0.02152517  0.06457551       0.007
  -0.03587528 -0.00717506  0.05022539       0.007
  -0.02152517  0.00717506  0.03587528       0.007
   0.00717506  0.06457551  0.00717506       0.003
   0.02152517  0.07892562 -0.00717506       0.007
   0.03587528  0.09327573 -0.02152517       0.007
   0.05022539  0.10762585 -0.03587528       0.007
  -0.10762585 -0.05022539  0.12197596       0.007
  -0.09327573 -0.03587528  0.10762585       0.007
  -0.07892562 -0.02152517  0.09327573       0.007
  -0.06457551 -0.00717506  0.07892562       0.007
  -0.05022539  0.00717506  0.06457551       0.007
  -0.03587528  0.02152517  0.05022539       0.007
   0.00717506  0.09327573  0.00717506       0.003
   0.02152517  0.10762585 -0.00717506       0.007
   0.03587528  0.12197596 -0.02152517       0.007
  -0.12197596 -0.03587528  0.13632607       0.007
  -0.10762585 -0.02152517  0.12197596       0.007
  -0.09327573 -0.00717506  0.10762585       0.007
  -0.07892562  0.00717506  0.09327573       0.007
  -0.06457551  0.02152517  0.07892562       0.007
  -0.05022539  0.03587528  0.06457551       0.007
   0.00717506  0.12197596  0.00717506       0.003
   0.02152517  0.13632607 -0.00717506       0.007
  -0.13632607 -0.02152517  0.15067618       0.007
  -0.12197596 -0.00717506  0.13632607       0.007
  -0.10762585  0.00717506  0.12197596       0.007
  -0.09327573  0.02152517  0.10762585       0.007
  -0.07892562  0.03587528  0.09327573       0.007
  -0.06457551  0.05022539  0.07892562       0.007
   0.00717506  0.15067618  0.00717506       0.003
  -0.15067618 -0.00717506  0.16502630       0.007
  -0.13632607  0.00717506  0.15067618       0.007
  -0.12197596  0.02152517  0.13632607       0.007
  -0.10762585  0.03587528  0.12197596       0.007
  -0.09327573  0.05022539  0.10762585       0.007
  -0.07892562  0.06457551  0.09327573       0.007
   0.00717506 -0.16502630  0.00717506       0.003
   0.02152517 -0.15067618 -0.00717506       0.007
   0.03587528 -0.13632607 -0.02152517       0.007
   0.05022539 -0.12197596 -0.03587528       0.007
   0.06457551 -0.10762585 -0.05022539       0.007
   0.00717506 -0.13632607  0.00717506       0.003
   0.02152517 -0.12197596 -0.00717506       0.007
   0.03587528 -0.10762585 -0.02152517       0.007
   0.05022539 -0.09327573 -0.03587528       0.007
   0.00717506 -0.10762585  0.00717506       0.003
   0.02152517 -0.09327573 -0.00717506       0.007
   0.03587528 -0.07892562 -0.02152517       0.007
   0.00717506 -0.07892562  0.00717506       0.003
   0.02152517 -0.06457551 -0.00717506       0.007
   0.00717506 -0.05022539  0.00717506       0.003
   0.02152517  0.02152517  0.02152517       0.001
   0.03587528  0.03587528  0.00717506       0.003
   0.05022539  0.05022539 -0.00717506       0.003
   0.06457551  0.06457551 -0.02152517       0.003
   0.07892562  0.07892562 -0.03587528       0.003
  -0.07892562 -0.07892562  0.12197596       0.003
  -0.06457551 -0.06457551  0.10762585       0.003
  -0.05022539 -0.05022539  0.09327573       0.003
  -0.03587528 -0.03587528  0.07892562       0.003
  -0.02152517 -0.02152517  0.06457551       0.003
   0.02152517  0.05022539  0.02152517       0.003
   0.03587528  0.06457551  0.00717506       0.007
   0.05022539  0.07892562 -0.00717506       0.007
   0.06457551  0.09327573 -0.02152517       0.007
  -0.09327573 -0.06457551  0.13632607       0.007
  -0.07892562 -0.05022539  0.12197596       0.007
  -0.06457551 -0.03587528  0.10762585       0.007
  -0.05022539 -0.02152517  0.09327573       0.007
  -0.03587528 -0.00717506  0.07892562       0.007
   0.02152517  0.07892562  0.02152517       0.003
   0.03587528  0.09327573  0.00717506       0.007
   0.05022539  0.10762585 -0.00717506       0.007
  -0.10762585 -0.05022539  0.15067618       0.007
  -0.09327573 -0.03587528  0.13632607       0.007
  -0.07892562 -0.02152517  0.12197596       0.007
  -0.06457551 -0.00717506  0.10762585       0.007
  -0.05022539  0.00717506  0.09327573       0.007
   0.02152517  0.10762585  0.02152517       0.003
   0.03587528  0.12197596  0.00717506       0.007
  -0.12197596 -0.03587528  0.16502630       0.007
  -0.10762585 -0.02152517  0.15067618       0.007
  -0.09327573 -0.00717506  0.13632607       0.007
  -0.07892562  0.00717506  0.12197596       0.007
  -0.06457551  0.02152517  0.10762585       0.007
   0.02152517  0.13632607  0.02152517       0.003
  -0.13632607 -0.02152517  0.17937641       0.007
  -0.12197596 -0.00717506  0.16502630       0.007
  -0.10762585  0.00717506  0.15067618       0.007
  -0.09327573  0.02152517  0.13632607       0.007
  -0.07892562  0.03587528  0.12197596       0.007
   0.02152517 -0.17937641  0.02152517       0.003
   0.03587528 -0.16502630  0.00717506       0.007
   0.05022539 -0.15067618 -0.00717506       0.007
   0.06457551 -0.13632607 -0.02152517       0.007
   0.02152517 -0.15067618  0.02152517       0.003
   0.03587528 -0.13632607  0.00717506       0.007
   0.05022539 -0.12197596 -0.00717506       0.007
   0.02152517 -0.12197596  0.02152517       0.003
   0.03587528 -0.10762585  0.00717506       0.007
   0.02152517 -0.09327573  0.02152517       0.003
   0.03587528  0.03587528  0.03587528       0.001
   0.05022539  0.05022539  0.02152517       0.003
   0.06457551  0.06457551  0.00717506       0.003
   0.07892562  0.07892562 -0.00717506       0.003
  -0.07892562 -0.07892562  0.15067618       0.003
  -0.06457551 -0.06457551  0.13632607       0.003
  -0.05022539 -0.05022539  0.12197596       0.003
  -0.03587528 -0.03587528  0.10762585       0.003
   0.03587528  0.06457551  0.03587528       0.003
   0.05022539  0.07892562  0.02152517       0.007
   0.06457551  0.09327573  0.00717506       0.007
  -0.09327573 -0.06457551  0.16502630       0.007
  -0.07892562 -0.05022539  0.15067618       0.007
  -0.06457551 -0.03587528  0.13632607       0.007
  -0.05022539 -0.02152517  0.12197596       0.007
   0.03587528  0.09327573  0.03587528       0.003
   0.05022539  0.10762585  0.02152517       0.007
  -0.10762585 -0.05022539  0.17937641       0.007
  -0.09327573 -0.03587528  0.16502630       0.007
  -0.07892562 -0.02152517  0.15067618       0.007
  -0.06457551 -0.00717506  0.13632607       0.007
   0.03587528  0.12197596  0.03587528       0.003
  -0.12197596 -0.03587528  0.19372652       0.007
  -0.10762585 -0.02152517  0.17937641       0.007
  -0.09327573 -0.00717506  0.16502630       0.007
  -0.07892562  0.00717506  0.15067618       0.007
   0.03587528 -0.19372652  0.03587528       0.003
   0.05022539 -0.17937641  0.02152517       0.007
   0.06457551 -0.16502630  0.00717506       0.007
   0.03587528 -0.16502630  0.03587528       0.003
   0.05022539 -0.15067618  0.02152517       0.007
   0.03587528 -0.13632607  0.03587528       0.003
   0.05022539  0.05022539  0.05022539       0.001
   0.06457551  0.06457551  0.03587528       0.003
   0.07892562  0.07892562  0.02152517       0.003
  -0.07892562 -0.07892562  0.17937641       0.003
  -0.06457551 -0.06457551  0.16502630       0.003
  -0.05022539 -0.05022539  0.15067618       0.003
   0.05022539  0.07892562  0.05022539       0.003
   0.06457551  0.09327573  0.03587528       0.007
  -0.09327573 -0.06457551  0.19372652       0.007
  -0.07892562 -0.05022539  0.17937641       0.007
  -0.06457551 -0.03587528  0.16502630       0.007
   0.05022539  0.10762585  0.05022539       0.003
  -0.10762585 -0.05022539  0.20807663       0.007
  -0.09327573 -0.03587528  0.19372652       0.007
  -0.07892562 -0.02152517  0.17937641       0.007
   0.05022539 -0.20807663  0.05022539       0.003
   0.06457551 -0.19372652  0.03587528       0.007
   0.05022539 -0.17937641  0.05022539       0.003
   0.06457551  0.06457551  0.06457551       0.001
   0.07892562  0.07892562  0.05022539       0.003
  -0.07892562 -0.07892562  0.20807663       0.003
  -0.06457551 -0.06457551  0.19372652       0.003
   0.06457551  0.09327573  0.06457551       0.003
  -0.09327573 -0.06457551  0.22242675       0.007
  -0.07892562 -0.05022539  0.20807663       0.007
   0.06457551 -0.22242675  0.06457551       0.003
   0.07892562  0.07892562  0.07892562       0.001
  -0.07892562 -0.07892562  0.23677686       0.003
 
 k-points in reciprocal lattice and weights: KPOINTS created by Atomic Simulation Env
   0.04166667  0.04166667  0.04166667       0.001
   0.12500000  0.04166667  0.04166667       0.003
   0.20833333  0.04166667  0.04166667       0.003
   0.29166667  0.04166667  0.04166667       0.003
   0.37500000  0.04166667  0.04166667       0.003
   0.45833333  0.04166667  0.04166667       0.003
  -0.45833333  0.04166667  0.04166667       0.003
  -0.37500000  0.04166667  0.04166667       0.003
  -0.29166667  0.04166667  0.04166667       0.003
  -0.20833333  0.04166667  0.04166667       0.003
  -0.12500000  0.04166667  0.04166667       0.003
  -0.04166667  0.04166667  0.04166667       0.003
   0.12500000  0.12500000  0.04166667       0.003
   0.20833333  0.12500000  0.04166667       0.007
   0.29166667  0.12500000  0.04166667       0.007
   0.37500000  0.12500000  0.04166667       0.007
   0.45833333  0.12500000  0.04166667       0.007
  -0.45833333  0.12500000  0.04166667       0.007
  -0.37500000  0.12500000  0.04166667       0.007
  -0.29166667  0.12500000  0.04166667       0.007
  -0.20833333  0.12500000  0.04166667       0.007
  -0.12500000  0.12500000  0.04166667       0.007
  -0.04166667  0.12500000  0.04166667       0.007
   0.20833333  0.20833333  0.04166667       0.003
   0.29166667  0.20833333  0.04166667       0.007
   0.37500000  0.20833333  0.04166667       0.007
   0.45833333  0.20833333  0.04166667       0.007
  -0.45833333  0.20833333  0.04166667       0.007
  -0.37500000  0.20833333  0.04166667       0.007
  -0.29166667  0.20833333  0.04166667       0.007
  -0.20833333  0.20833333  0.04166667       0.007
  -0.12500000  0.20833333  0.04166667       0.007
  -0.04166667  0.20833333  0.04166667       0.007
   0.29166667  0.29166667  0.04166667       0.003
   0.37500000  0.29166667  0.04166667       0.007
   0.45833333  0.29166667  0.04166667       0.007
  -0.45833333  0.29166667  0.04166667       0.007
  -0.37500000  0.29166667  0.04166667       0.007
  -0.29166667  0.29166667  0.04166667       0.007
  -0.20833333  0.29166667  0.04166667       0.007
  -0.12500000  0.29166667  0.04166667       0.007
  -0.04166667  0.29166667  0.04166667       0.007
   0.37500000  0.37500000  0.04166667       0.003
   0.45833333  0.37500000  0.04166667       0.007
  -0.45833333  0.37500000  0.04166667       0.007
  -0.37500000  0.37500000  0.04166667       0.007
  -0.29166667  0.37500000  0.04166667       0.007
  -0.20833333  0.37500000  0.04166667       0.007
  -0.12500000  0.37500000  0.04166667       0.007
  -0.04166667  0.37500000  0.04166667       0.007
   0.45833333  0.45833333  0.04166667       0.003
  -0.45833333  0.45833333  0.04166667       0.007
  -0.37500000  0.45833333  0.04166667       0.007
  -0.29166667  0.45833333  0.04166667       0.007
  -0.20833333  0.45833333  0.04166667       0.007
  -0.12500000  0.45833333  0.04166667       0.007
  -0.04166667  0.45833333  0.04166667       0.007
  -0.45833333 -0.45833333  0.04166667       0.003
  -0.37500000 -0.45833333  0.04166667       0.007
  -0.29166667 -0.45833333  0.04166667       0.007
  -0.20833333 -0.45833333  0.04166667       0.007
  -0.12500000 -0.45833333  0.04166667       0.007
  -0.37500000 -0.37500000  0.04166667       0.003
  -0.29166667 -0.37500000  0.04166667       0.007
  -0.20833333 -0.37500000  0.04166667       0.007
  -0.12500000 -0.37500000  0.04166667       0.007
  -0.29166667 -0.29166667  0.04166667       0.003
  -0.20833333 -0.29166667  0.04166667       0.007
  -0.12500000 -0.29166667  0.04166667       0.007
  -0.20833333 -0.20833333  0.04166667       0.003
  -0.12500000 -0.20833333  0.04166667       0.007
  -0.12500000 -0.12500000  0.04166667       0.003
   0.12500000  0.12500000  0.12500000       0.001
   0.20833333  0.12500000  0.12500000       0.003
   0.29166667  0.12500000  0.12500000       0.003
   0.37500000  0.12500000  0.12500000       0.003
   0.45833333  0.12500000  0.12500000       0.003
  -0.45833333  0.12500000  0.12500000       0.003
  -0.37500000  0.12500000  0.12500000       0.003
  -0.29166667  0.12500000  0.12500000       0.003
  -0.20833333  0.12500000  0.12500000       0.003
  -0.12500000  0.12500000  0.12500000       0.003
   0.20833333  0.20833333  0.12500000       0.003
   0.29166667  0.20833333  0.12500000       0.007
   0.37500000  0.20833333  0.12500000       0.007
   0.45833333  0.20833333  0.12500000       0.007
  -0.45833333  0.20833333  0.12500000       0.007
  -0.37500000  0.20833333  0.12500000       0.007
  -0.29166667  0.20833333  0.12500000       0.007
  -0.20833333  0.20833333  0.12500000       0.007
  -0.12500000  0.20833333  0.12500000       0.007
   0.29166667  0.29166667  0.12500000       0.003
   0.37500000  0.29166667  0.12500000       0.007
   0.45833333  0.29166667  0.12500000       0.007
  -0.45833333  0.29166667  0.12500000       0.007
  -0.37500000  0.29166667  0.12500000       0.007
  -0.29166667  0.29166667  0.12500000       0.007
  -0.20833333  0.29166667  0.12500000       0.007
  -0.12500000  0.29166667  0.12500000       0.007
   0.37500000  0.37500000  0.12500000       0.003
   0.45833333  0.37500000  0.12500000       0.007
  -0.45833333  0.37500000  0.12500000       0.007
  -0.37500000  0.37500000  0.12500000       0.007
  -0.29166667  0.37500000  0.12500000       0.007
  -0.20833333  0.37500000  0.12500000       0.007
  -0.12500000  0.37500000  0.12500000       0.007
   0.45833333  0.45833333  0.12500000       0.003
  -0.45833333  0.45833333  0.12500000       0.007
  -0.37500000  0.45833333  0.12500000       0.007
  -0.29166667  0.45833333  0.12500000       0.007
  -0.20833333  0.45833333  0.12500000       0.007
  -0.12500000  0.45833333  0.12500000       0.007
  -0.45833333 -0.45833333  0.12500000       0.003
  -0.37500000 -0.45833333  0.12500000       0.007
  -0.29166667 -0.45833333  0.12500000       0.007
  -0.20833333 -0.45833333  0.12500000       0.007
  -0.37500000 -0.37500000  0.12500000       0.003
  -0.29166667 -0.37500000  0.12500000       0.007
  -0.20833333 -0.37500000  0.12500000       0.007
  -0.29166667 -0.29166667  0.12500000       0.003
  -0.20833333 -0.29166667  0.12500000       0.007
  -0.20833333 -0.20833333  0.12500000       0.003
   0.20833333  0.20833333  0.20833333       0.001
   0.29166667  0.20833333  0.20833333       0.003
   0.37500000  0.20833333  0.20833333       0.003
   0.45833333  0.20833333  0.20833333       0.003
  -0.45833333  0.20833333  0.20833333       0.003
  -0.37500000  0.20833333  0.20833333       0.003
  -0.29166667  0.20833333  0.20833333       0.003
  -0.20833333  0.20833333  0.20833333       0.003
   0.29166667  0.29166667  0.20833333       0.003
   0.37500000  0.29166667  0.20833333       0.007
   0.45833333  0.29166667  0.20833333       0.007
  -0.45833333  0.29166667  0.20833333       0.007
  -0.37500000  0.29166667  0.20833333       0.007
  -0.29166667  0.29166667  0.20833333       0.007
  -0.20833333  0.29166667  0.20833333       0.007
   0.37500000  0.37500000  0.20833333       0.003
   0.45833333  0.37500000  0.20833333       0.007
  -0.45833333  0.37500000  0.20833333       0.007
  -0.37500000  0.37500000  0.20833333       0.007
  -0.29166667  0.37500000  0.20833333       0.007
  -0.20833333  0.37500000  0.20833333       0.007
   0.45833333  0.45833333  0.20833333       0.003
  -0.45833333  0.45833333  0.20833333       0.007
  -0.37500000  0.45833333  0.20833333       0.007
  -0.29166667  0.45833333  0.20833333       0.007
  -0.20833333  0.45833333  0.20833333       0.007
  -0.45833333 -0.45833333  0.20833333       0.003
  -0.37500000 -0.45833333  0.20833333       0.007
  -0.29166667 -0.45833333  0.20833333       0.007
  -0.37500000 -0.37500000  0.20833333       0.003
  -0.29166667 -0.37500000  0.20833333       0.007
  -0.29166667 -0.29166667  0.20833333       0.003
   0.29166667  0.29166667  0.29166667       0.001
   0.37500000  0.29166667  0.29166667       0.003
   0.45833333  0.29166667  0.29166667       0.003
  -0.45833333  0.29166667  0.29166667       0.003
  -0.37500000  0.29166667  0.29166667       0.003
  -0.29166667  0.29166667  0.29166667       0.003
   0.37500000  0.37500000  0.29166667       0.003
   0.45833333  0.37500000  0.29166667       0.007
  -0.45833333  0.37500000  0.29166667       0.007
  -0.37500000  0.37500000  0.29166667       0.007
  -0.29166667  0.37500000  0.29166667       0.007
   0.45833333  0.45833333  0.29166667       0.003
  -0.45833333  0.45833333  0.29166667       0.007
  -0.37500000  0.45833333  0.29166667       0.007
  -0.29166667  0.45833333  0.29166667       0.007
  -0.45833333 -0.45833333  0.29166667       0.003
  -0.37500000 -0.45833333  0.29166667       0.007
  -0.37500000 -0.37500000  0.29166667       0.003
   0.37500000  0.37500000  0.37500000       0.001
   0.45833333  0.37500000  0.37500000       0.003
  -0.45833333  0.37500000  0.37500000       0.003
  -0.37500000  0.37500000  0.37500000       0.003
   0.45833333  0.45833333  0.37500000       0.003
  -0.45833333  0.45833333  0.37500000       0.007
  -0.37500000  0.45833333  0.37500000       0.007
  -0.45833333 -0.45833333  0.37500000       0.003
   0.45833333  0.45833333  0.45833333       0.001
  -0.45833333  0.45833333  0.45833333       0.003
 
 position of ions in fractional coordinates (direct lattice) 
   0.25000000  0.25000000  0.25000000
   0.75000000  0.75000000  0.75000000
   0.50000000  0.50000000  0.50000000
   0.00000000  0.00000000  0.00000000
 
 position of ions in cartesian coordinates  (Angst):
   1.45178883  1.45178883  1.45178883
   4.35536649  4.35536649  4.35536649
   2.90357766  2.90357766  2.90357766
   0.00000000  0.00000000  0.00000000
 


--------------------------------------------------------------------------------------------------------


 k-point   1 :   0.0417 0.0417 0.0417  plane waves:    1642
 k-point   2 :   0.1250 0.0417 0.0417  plane waves:    1636
 k-point   3 :   0.2083 0.0417 0.0417  plane waves:    1631
 k-point   4 :   0.2917 0.0417 0.0417  plane waves:    1630
 k-point   5 :   0.3750 0.0417 0.0417  plane waves:    1628
 k-point   6 :   0.4583 0.0417 0.0417  plane waves:    1637
 k-point   7 :  -0.4583 0.0417 0.0417  plane waves:    1643
 k-point   8 :  -0.3750 0.0417 0.0417  plane waves:    1641
 k-point   9 :  -0.2917 0.0417 0.0417  plane waves:    1626
 k-point  10 :  -0.2083 0.0417 0.0417  plane waves:    1635
 k-point  11 :  -0.1250 0.0417 0.0417  plane waves:    1627
 k-point  12 :  -0.0417 0.0417 0.0417  plane waves:    1649
 k-point  13 :   0.1250 0.1250 0.0417  plane waves:    1629
 k-point  14 :   0.2083 0.1250 0.0417  plane waves:    1631
 k-point  15 :   0.2917 0.1250 0.0417  plane waves:    1627
 k-point  16 :   0.3750 0.1250 0.0417  plane waves:    1628
 k-point  17 :   0.4583 0.1250 0.0417  plane waves:    1631
 k-point  18 :  -0.4583 0.1250 0.0417  plane waves:    1632
 k-point  19 :  -0.3750 0.1250 0.0417  plane waves:    1633
 k-point  20 :  -0.2917 0.1250 0.0417  plane waves:    1632
 k-point  21 :  -0.2083 0.1250 0.0417  plane waves:    1629
 k-point  22 :  -0.1250 0.1250 0.0417  plane waves:    1628
 k-point  23 :  -0.0417 0.1250 0.0417  plane waves:    1630
 k-point  24 :   0.2083 0.2083 0.0417  plane waves:    1630
 k-point  25 :   0.2917 0.2083 0.0417  plane waves:    1634
 k-point  26 :   0.3750 0.2083 0.0417  plane waves:    1632
 k-point  27 :   0.4583 0.2083 0.0417  plane waves:    1627
 k-point  28 :  -0.4583 0.2083 0.0417  plane waves:    1633
 k-point  29 :  -0.3750 0.2083 0.0417  plane waves:    1626
 k-point  30 :  -0.2917 0.2083 0.0417  plane waves:    1628
 k-point  31 :  -0.2083 0.2083 0.0417  plane waves:    1633
 k-point  32 :  -0.1250 0.2083 0.0417  plane waves:    1625
 k-point  33 :  -0.0417 0.2083 0.0417  plane waves:    1628
 k-point  34 :   0.2917 0.2917 0.0417  plane waves:    1625
 k-point  35 :   0.3750 0.2917 0.0417  plane waves:    1643
 k-point  36 :   0.4583 0.2917 0.0417  plane waves:    1640
 k-point  37 :  -0.4583 0.2917 0.0417  plane waves:    1638
 k-point  38 :  -0.3750 0.2917 0.0417  plane waves:    1632
 k-point  39 :  -0.2917 0.2917 0.0417  plane waves:    1631
 k-point  40 :  -0.2083 0.2917 0.0417  plane waves:    1628
 k-point  41 :  -0.1250 0.2917 0.0417  plane waves:    1630
 k-point  42 :  -0.0417 0.2917 0.0417  plane waves:    1633
 k-point  43 :   0.3750 0.3750 0.0417  plane waves:    1641
 k-point  44 :   0.4583 0.3750 0.0417  plane waves:    1641
 k-point  45 :  -0.4583 0.3750 0.0417  plane waves:    1641
 k-point  46 :  -0.3750 0.3750 0.0417  plane waves:    1639
 k-point  47 :  -0.2917 0.3750 0.0417  plane waves:    1637
 k-point  48 :  -0.2083 0.3750 0.0417  plane waves:    1631
 k-point  49 :  -0.1250 0.3750 0.0417  plane waves:    1632
 k-point  50 :  -0.0417 0.3750 0.0417  plane waves:    1633
 k-point  51 :   0.4583 0.4583 0.0417  plane waves:    1633
 k-point  52 :  -0.4583 0.4583 0.0417  plane waves:    1637
 k-point  53 :  -0.3750 0.4583 0.0417  plane waves:    1639
 k-point  54 :  -0.2917 0.4583 0.0417  plane waves:    1640
 k-point  55 :  -0.2083 0.4583 0.0417  plane waves:    1633
 k-point  56 :  -0.1250 0.4583 0.0417  plane waves:    1633
 k-point  57 :  -0.0417 0.4583 0.0417  plane waves:    1639
 k-point  58 :  -0.4583-0.4583 0.0417  plane waves:    1640
 k-point  59 :  -0.3750-0.4583 0.0417  plane waves:    1639
 k-point  60 :  -0.2917-0.4583 0.0417  plane waves:    1640
 k-point  61 :  -0.2083-0.4583 0.0417  plane waves:    1634
 k-point  62 :  -0.1250-0.4583 0.0417  plane waves:    1630
 k-point  63 :  -0.3750-0.3750 0.0417  plane waves:    1635
 k-point  64 :  -0.2917-0.3750 0.0417  plane waves:    1637
 k-point  65 :  -0.2083-0.3750 0.0417  plane waves:    1638
 k-point  66 :  -0.1250-0.3750 0.0417  plane waves:    1630
 k-point  67 :  -0.2917-0.2917 0.0417  plane waves:    1645
 k-point  68 :  -0.2083-0.2917 0.0417  plane waves:    1636
 k-point  69 :  -0.1250-0.2917 0.0417  plane waves:    1633
 k-point  70 :  -0.2083-0.2083 0.0417  plane waves:    1627
 k-point  71 :  -0.1250-0.2083 0.0417  plane waves:    1638
 k-point  72 :  -0.1250-0.1250 0.0417  plane waves:    1634
 k-point  73 :   0.1250 0.1250 0.1250  plane waves:    1624
 k-point  74 :   0.2083 0.1250 0.1250  plane waves:    1627
 k-point  75 :   0.2917 0.1250 0.1250  plane waves:    1625
 k-point  76 :   0.3750 0.1250 0.1250  plane waves:    1630
 k-point  77 :   0.4583 0.1250 0.1250  plane waves:    1633
 k-point  78 :  -0.4583 0.1250 0.1250  plane waves:    1634
 k-point  79 :  -0.3750 0.1250 0.1250  plane waves:    1633
 k-point  80 :  -0.2917 0.1250 0.1250  plane waves:    1628
 k-point  81 :  -0.2083 0.1250 0.1250  plane waves:    1630
 k-point  82 :  -0.1250 0.1250 0.1250  plane waves:    1631
 k-point  83 :   0.2083 0.2083 0.1250  plane waves:    1626
 k-point  84 :   0.2917 0.2083 0.1250  plane waves:    1629
 k-point  85 :   0.3750 0.2083 0.1250  plane waves:    1631
 k-point  86 :   0.4583 0.2083 0.1250  plane waves:    1628
 k-point  87 :  -0.4583 0.2083 0.1250  plane waves:    1632
 k-point  88 :  -0.3750 0.2083 0.1250  plane waves:    1634
 k-point  89 :  -0.2917 0.2083 0.1250  plane waves:    1634
 k-point  90 :  -0.2083 0.2083 0.1250  plane waves:    1630
 k-point  91 :  -0.1250 0.2083 0.1250  plane waves:    1636
 k-point  92 :   0.2917 0.2917 0.1250  plane waves:    1641
 k-point  93 :   0.3750 0.2917 0.1250  plane waves:    1636
 k-point  94 :   0.4583 0.2917 0.1250  plane waves:    1635
 k-point  95 :  -0.4583 0.2917 0.1250  plane waves:    1635
 k-point  96 :  -0.3750 0.2917 0.1250  plane waves:    1637
 k-point  97 :  -0.2917 0.2917 0.1250  plane waves:    1634
 k-point  98 :  -0.2083 0.2917 0.1250  plane waves:    1632
 k-point  99 :  -0.1250 0.2917 0.1250  plane waves:    1634
 k-point 100 :   0.3750 0.3750 0.1250  plane waves:    1639
 k-point 101 :   0.4583 0.3750 0.1250  plane waves:    1641
 k-point 102 :  -0.4583 0.3750 0.1250  plane waves:    1642
 k-point 103 :  -0.3750 0.3750 0.1250  plane waves:    1636
 k-point 104 :  -0.2917 0.3750 0.1250  plane waves:    1635
 k-point 105 :  -0.2083 0.3750 0.1250  plane waves:    1634
 k-point 106 :  -0.1250 0.3750 0.1250  plane waves:    1632
 k-point 107 :   0.4583 0.4583 0.1250  plane waves:    1643
 k-point 108 :  -0.4583 0.4583 0.1250  plane waves:    1645
 k-point 109 :  -0.3750 0.4583 0.1250  plane waves:    1638
 k-point 110 :  -0.2917 0.4583 0.1250  plane waves:    1635
 k-point 111 :  -0.2083 0.4583 0.1250  plane waves:    1635
 k-point 112 :  -0.1250 0.4583 0.1250  plane waves:    1632
 k-point 113 :  -0.4583-0.4583 0.1250  plane waves:    1640
 k-point 114 :  -0.3750-0.4583 0.1250  plane waves:    1643
 k-point 115 :  -0.2917-0.4583 0.1250  plane waves:    1643
 k-point 116 :  -0.2083-0.4583 0.1250  plane waves:    1633
 k-point 117 :  -0.3750-0.3750 0.1250  plane waves:    1640
 k-point 118 :  -0.2917-0.3750 0.1250  plane waves:    1640
 k-point 119 :  -0.2083-0.3750 0.1250  plane waves:    1638
 k-point 120 :  -0.2917-0.2917 0.1250  plane waves:    1640
 k-point 121 :  -0.2083-0.2917 0.1250  plane waves:    1639
 k-point 122 :  -0.2083-0.2083 0.1250  plane waves:    1637
 k-point 123 :   0.2083 0.2083 0.2083  plane waves:    1633
 k-point 124 :   0.2917 0.2083 0.2083  plane waves:    1625
 k-point 125 :   0.3750 0.2083 0.2083  plane waves:    1627
 k-point 126 :   0.4583 0.2083 0.2083  plane waves:    1636
 k-point 127 :  -0.4583 0.2083 0.2083  plane waves:    1627
 k-point 128 :  -0.3750 0.2083 0.2083  plane waves:    1629
 k-point 129 :  -0.2917 0.2083 0.2083  plane waves:    1633
 k-point 130 :  -0.2083 0.2083 0.2083  plane waves:    1628
 k-point 131 :   0.2917 0.2917 0.2083  plane waves:    1628
 k-point 132 :   0.3750 0.2917 0.2083  plane waves:    1628
 k-point 133 :   0.4583 0.2917 0.2083  plane waves:    1627
 k-point 134 :  -0.4583 0.2917 0.2083  plane waves:    1630
 k-point 135 :  -0.3750 0.2917 0.2083  plane waves:    1634
 k-point 136 :  -0.2917 0.2917 0.2083  plane waves:    1636
 k-point 137 :  -0.2083 0.2917 0.2083  plane waves:    1638
 k-point 138 :   0.3750 0.3750 0.2083  plane waves:    1631
 k-point 139 :   0.4583 0.3750 0.2083  plane waves:    1631
 k-point 140 :  -0.4583 0.3750 0.2083  plane waves:    1637
 k-point 141 :  -0.3750 0.3750 0.2083  plane waves:    1632
 k-point 142 :  -0.2917 0.3750 0.2083  plane waves:    1636
 k-point 143 :  -0.2083 0.3750 0.2083  plane waves:    1636
 k-point 144 :   0.4583 0.4583 0.2083  plane waves:    1637
 k-point 145 :  -0.4583 0.4583 0.2083  plane waves:    1643
 k-point 146 :  -0.3750 0.4583 0.2083  plane waves:    1635
 k-point 147 :  -0.2917 0.4583 0.2083  plane waves:    1632
 k-point 148 :  -0.2083 0.4583 0.2083  plane waves:    1631
 k-point 149 :  -0.4583-0.4583 0.2083  plane waves:    1636
 k-point 150 :  -0.3750-0.4583 0.2083  plane waves:    1635
 k-point 151 :  -0.2917-0.4583 0.2083  plane waves:    1636
 k-point 152 :  -0.3750-0.3750 0.2083  plane waves:    1640
 k-point 153 :  -0.2917-0.3750 0.2083  plane waves:    1635
 k-point 154 :  -0.2917-0.2917 0.2083  plane waves:    1639
 k-point 155 :   0.2917 0.2917 0.2917  plane waves:    1636
 k-point 156 :   0.3750 0.2917 0.2917  plane waves:    1630
 k-point 157 :   0.4583 0.2917 0.2917  plane waves:    1632
 k-point 158 :  -0.4583 0.2917 0.2917  plane waves:    1630
 k-point 159 :  -0.3750 0.2917 0.2917  plane waves:    1630
 k-point 160 :  -0.2917 0.2917 0.2917  plane waves:    1632
 k-point 161 :   0.3750 0.3750 0.2917  plane waves:    1633
 k-point 162 :   0.4583 0.3750 0.2917  plane waves:    1632
 k-point 163 :  -0.4583 0.3750 0.2917  plane waves:    1628
 k-point 164 :  -0.3750 0.3750 0.2917  plane waves:    1636
 k-point 165 :  -0.2917 0.3750 0.2917  plane waves:    1635
 k-point 166 :   0.4583 0.4583 0.2917  plane waves:    1634
 k-point 167 :  -0.4583 0.4583 0.2917  plane waves:    1634
 k-point 168 :  -0.3750 0.4583 0.2917  plane waves:    1632
 k-point 169 :  -0.2917 0.4583 0.2917  plane waves:    1633
 k-point 170 :  -0.4583-0.4583 0.2917  plane waves:    1631
 k-point 171 :  -0.3750-0.4583 0.2917  plane waves:    1635
 k-point 172 :  -0.3750-0.3750 0.2917  plane waves:    1640
 k-point 173 :   0.3750 0.3750 0.3750  plane waves:    1634
 k-point 174 :   0.4583 0.3750 0.3750  plane waves:    1636
 k-point 175 :  -0.4583 0.3750 0.3750  plane waves:    1630
 k-point 176 :  -0.3750 0.3750 0.3750  plane waves:    1633
 k-point 177 :   0.4583 0.4583 0.3750  plane waves:    1637
 k-point 178 :  -0.4583 0.4583 0.3750  plane waves:    1632
 k-point 179 :  -0.3750 0.4583 0.3750  plane waves:    1637
 k-point 180 :  -0.4583-0.4583 0.3750  plane waves:    1633
 k-point 181 :   0.4583 0.4583 0.4583  plane waves:    1649
 k-point 182 :  -0.4583 0.4583 0.4583  plane waves:    1637

 maximum and minimum number of plane-waves per node :       345      308

 maximum number of plane-waves:      1649
 maximum index in each direction: 
   IXMAX=    8   IYMAX=    8   IZMAX=    8
   IXMIN=   -8   IYMIN=   -8   IZMIN=   -8


 parallel 3D FFT for wavefunctions:
    minimum data exchange during FFTs selected (reduces bandwidth)
 parallel 3D FFT for charge:
    minimum data exchange during FFTs selected (reduces bandwidth)


 total amount of memory used by VASP MPI-rank0    71973. kBytes
=======================================================================

   base      :      30000. kBytes
   nonl-proj :      27383. kBytes
   fftplans  :        467. kBytes
   grid      :       1233. kBytes
   one-center:         31. kBytes
   wavefun   :      12859. kBytes
 
     INWAV:  cpu time    0.0000: real time    0.0001
 Broyden mixing: mesh for mixing (old mesh)
   NGX = 17   NGY = 17   NGZ = 17
  (NGX  = 56   NGY  = 56   NGZ  = 56)
  gives a total of   4913 points

 initial charge density was supplied:
 charge density of overlapping atoms calculated
 number of electron      30.0000000 magnetization       3.9910000
 keeping initial charge density in first step


--------------------------------------------------------------------------------------------------------


 Maximum index for augmentation-charges         1711 (set IRDMAX)


--------------------------------------------------------------------------------------------------------


 First call to EWALD:  gamma=   0.485
 Maximum number of real-space cells 3x 3x 3
 Maximum number of reciprocal cells 3x 3x 3

    FEWALD:  cpu time    0.0000: real time    0.0011


--------------------------------------- Iteration      1(   1)  ---------------------------------------


    POTLOK:  cpu time    0.0160: real time    0.0167
    SETDIJ:  cpu time    0.0040: real time    0.0051
     EDDAV:  cpu time    2.4962: real time    2.6088
       DOS:  cpu time    0.0040: real time    0.0063
    --------------------------------------------
      LOOP:  cpu time    2.5202: real time    2.6369

 eigenvalue-minimisations  : 17472
 total energy-change (2. order) : 0.1895414E+03  (-0.1474836E+04)
 number of electron      30.0000000 magnetization       3.9910000
 augmentation part       30.0000000 magnetization       3.9910000

 Free energy of the ion-electron system (eV)
  ---------------------------------------------------
  alpha Z        PSCENC =       208.29293710
  Ewald energy   TEWEN  =     -2191.25844993
  -Hartree energ DENC   =      -723.08221851
[...]
     12       3.5747      1.00000
     13       5.3861     -0.01977
     14       5.4778     -0.00513
     15       6.4845     -0.00000
     16       6.5785     -0.00000
     17       6.6109     -0.00000
     18       8.6906     -0.00000
     19       8.8599     -0.00000
     20       9.5418     -0.00000
     21      10.9911      0.00000
     22      11.2647      0.00000
     23      14.0738      0.00000
     24      15.5438      0.00000

 k-point   178 :      -0.4583    0.4583    0.3750
  band No.  band energies     occupation 
      1      -2.7482      1.00000
      2      -0.7253      1.00000
      3       1.5178      1.00000
      4       1.9652      1.00000
      5       2.4889      1.00000
      6       2.8238      1.00000
      7       2.9041      1.00000
      8       3.0574      1.00000
      9       3.1912      1.00000
     10       3.4118      1.00000
     11       3.4220      1.00000
     12       3.5918      1.00000
     13       5.2335     -0.01294
     14       5.4661     -0.00628
     15       6.3824     -0.00000
     16       6.5078     -0.00000
     17       6.5840     -0.00000
     18       8.0351     -0.00000
     19       8.1950     -0.00000
     20       9.7786     -0.00000
     21      11.3233      0.00000
     22      12.3644      0.00000
     23      14.9092      0.00000
     24      15.3950      0.00000

 k-point   179 :      -0.3750    0.4583    0.3750
  band No.  band energies     occupation 
      1      -2.4634      1.00000
      2      -0.5376      1.00000
      3       1.1063      1.00000
      4       2.0531      1.00000
      5       2.2978      1.00000
      6       2.8177      1.00000
      7       2.9359      1.00000
      8       3.1663      1.00000
      9       3.1952      1.00000
     10       3.3839      1.00000
     11       3.4669      1.00000
     12       3.6167      1.00000
     13       5.0521      0.49799
     14       5.3498     -0.02806
     15       6.1985     -0.00000
     16       6.4146     -0.00000
     17       6.5862     -0.00000
     18       7.3328     -0.00000
     19       7.6284     -0.00000
     20      10.0383     -0.00000
     21      12.0339      0.00000
     22      13.7376      0.00000
     23      15.0658      0.00000
     24      15.3550      0.00000

 k-point   180 :      -0.4583   -0.4583    0.3750
  band No.  band energies     occupation 
      1      -2.6027      1.00000
      2      -0.7614      1.00000
      3       1.3984      1.00000
      4       2.0251      1.00000
      5       2.4293      1.00000
      6       2.7810      1.00000
      7       2.9664      1.00000
      8       3.1181      1.00000
      9       3.1566      1.00000
     10       3.3814      1.00000
     11       3.4471      1.00000
     12       3.5860      1.00000
     13       5.2257     -0.00592
     14       5.4031     -0.01613
     15       6.2804     -0.00000
     16       6.5129     -0.00000
     17       6.5696     -0.00000
     18       7.7401     -0.00000
     19       8.1454     -0.00000
     20       9.5144     -0.00000
     21      12.1895      0.00000
     22      12.3177      0.00000
     23      15.1454      0.00000
     24      15.3271      0.00000

 k-point   181 :       0.4583    0.4583    0.4583
  band No.  band energies     occupation 
      1      -2.9137      1.00000
      2      -0.9413      1.00000
      3       1.8650      1.00000
      4       1.8650      1.00000
      5       2.8210      1.00000
      6       2.8442      1.00000
      7       2.8442      1.00000
      8       2.9929      1.00000
      9       2.9929      1.00000
     10       3.4420      1.00000
     11       3.4420      1.00000
     12       3.4710      1.00000
     13       5.4813     -0.00481
     14       5.4813     -0.00481
     15       6.5551     -0.00000
     16       6.5911     -0.00000
     17       6.5911     -0.00000
     18       9.0494     -0.00000
     19       9.8058     -0.00000
     20       9.8058     -0.00000
     21      10.1643     -0.00000
     22      10.1643     -0.00000
     23      13.6191      0.00000
     24      17.5164      0.00000

 k-point   182 :      -0.4583    0.4583    0.4583
  band No.  band energies     occupation 
      1      -2.7552      1.00000
      2      -0.9858      1.00000
      3       1.7490      1.00000
      4       1.8988      1.00000
      5       2.6529      1.00000
      6       2.8664      1.00000
      7       2.8998      1.00000
      8       2.9810      1.00000
      9       3.0928      1.00000
     10       3.4214      1.00000
     11       3.4227      1.00000
     12       3.5036      1.00000
     13       5.3829     -0.02049
     14       5.4884     -0.00422
     15       6.4823     -0.00000
     16       6.5638     -0.00000
     17       6.5809     -0.00000
     18       8.5871     -0.00000
     19       9.0446     -0.00000
     20       9.3453     -0.00000
     21      11.0386      0.00000
     22      11.1250      0.00000
     23      14.0874      0.00000
     24      17.0474      0.00000


--------------------------------------------------------------------------------------------------------


 soft charge-density along one line, spin component           1
         0         1         2         3         4         5         6         7         8         9
 total charge-density along one line
 
 soft charge-density along one line, spin component           2
         0         1         2         3         4         5         6         7         8         9
 total charge-density along one line
 
 pseudopotential strength for first ion, spin component:           1
 -5.029  -0.000  -0.000  -0.000  -0.000  -0.856   0.000   0.000
 -0.000  -5.029   0.000  -0.000  -0.000   0.000  -0.856  -0.000
 -0.000   0.000  -5.080   0.000   0.000   0.000  -0.000  -0.834
 -0.000  -0.000   0.000  -5.029   0.000   0.000   0.000  -0.000
 -0.000  -0.000   0.000   0.000  -5.080   0.000   0.000  -0.000
 -0.856   0.000   0.000   0.000   0.000   1.653  -0.000  -0.000
  0.000  -0.856  -0.000   0.000   0.000  -0.000   1.653   0.000
  0.000  -0.000  -0.834  -0.000  -0.000  -0.000   0.000   1.643
  0.000   0.000  -0.000  -0.856  -0.000  -0.000  -0.000   0.000
  0.000   0.000  -0.000  -0.000  -0.834  -0.000  -0.000   0.000
 -0.000  -0.000   0.000  -0.000   0.000  -0.000  -0.000   0.000
  0.000   0.000  -0.000   0.000  -0.000  -0.000  -0.000   0.000
 -0.000  -0.000   0.000   0.004   0.000   0.000   0.000  -0.000
  0.004  -0.000  -0.000  -0.000  -0.000  -0.002   0.000   0.000
 -0.000   0.004   0.000  -0.000  -0.000   0.000  -0.002  -0.000
  0.000   0.000  -0.000  -0.001  -0.000  -0.000  -0.000   0.000
 -0.001   0.000   0.000   0.000   0.000   0.000  -0.000  -0.000
  0.000  -0.001  -0.000   0.000   0.000  -0.000   0.000   0.000
 pseudopotential strength for first ion, spin component:           2
 -4.754  -0.000  -0.000  -0.000  -0.000  -0.975   0.000   0.000
 -0.000  -4.754   0.000  -0.000  -0.000   0.000  -0.975  -0.000
 -0.000   0.000  -4.680   0.000   0.000   0.000  -0.000  -1.003
 -0.000  -0.000   0.000  -4.754   0.000   0.000   0.000  -0.000
 -0.000  -0.000   0.000   0.000  -4.680   0.000   0.000  -0.000
 -0.975   0.000   0.000   0.000   0.000   1.704   0.000  -0.000
  0.000  -0.975  -0.000   0.000   0.000   0.000   1.704   0.000
  0.000  -0.000  -1.003  -0.000  -0.000  -0.000   0.000   1.714
  0.000   0.000  -0.000  -0.975  -0.000   0.000   0.000   0.000
  0.000   0.000  -0.000  -0.000  -1.003  -0.000  -0.000   0.000
 -0.000  -0.000   0.000  -0.000   0.000  -0.000  -0.000   0.000
  0.000   0.000  -0.000   0.000  -0.000  -0.000  -0.000   0.000
  0.000   0.000   0.000  -0.001   0.000   0.000   0.000   0.000
 -0.001   0.000  -0.000   0.000  -0.000   0.000   0.000  -0.000
  0.000  -0.001   0.000   0.000  -0.000   0.000   0.000   0.000
 -0.000  -0.000  -0.000  -0.000  -0.000   0.000   0.000   0.000
 -0.000  -0.000   0.000  -0.000   0.000   0.000   0.000  -0.000
 -0.000  -0.000  -0.000  -0.000   0.000   0.000   0.000   0.000
 total augmentation occupancy for first ion, spin component:           1
  1.847   0.000  -0.000  -0.000  -0.000   0.115  -0.000  -0.000   0.000  -0.000   0.000   0.000  -0.000   0.029   0.000   0.000
  0.000   1.847   0.000  -0.000   0.000   0.000   0.115  -0.000  -0.000   0.000   0.000   0.000  -0.000   0.000   0.029   0.000
  0.000  -0.000   1.775  -0.000   0.000  -0.000  -0.000   0.047  -0.000   0.000  -0.000  -0.000   0.000  -0.000   0.000  -0.000
 -0.000   0.000   0.000   1.847  -0.000  -0.000   0.000   0.000   0.115   0.000   0.000   0.000   0.029  -0.000  -0.000  -0.000
  0.000   0.000   0.000   0.000   1.775   0.000   0.000   0.000  -0.000   0.047   0.000   0.000  -0.000   0.000  -0.000   0.000
  0.115   0.000   0.000   0.000  -0.000   0.076   0.000   0.000   0.000  -0.000   0.000   0.000  -0.000  -0.009   0.000  -0.000
 -0.000   0.115  -0.000  -0.000   0.000  -0.000   0.076  -0.000   0.000  -0.000  -0.000   0.000   0.000   0.000  -0.009  -0.000
  0.000  -0.000   0.047   0.000   0.000   0.000  -0.000   0.093   0.000  -0.000   0.000  -0.000   0.000  -0.000  -0.000   0.000
 -0.000  -0.000  -0.000   0.115   0.000   0.000  -0.000   0.000   0.076  -0.000   0.000   0.000  -0.009  -0.000   0.000   0.003
  0.000   0.000   0.000  -0.000   0.047  -0.000  -0.000  -0.000   0.000   0.093  -0.000   0.000  -0.000   0.000  -0.000   0.000
  0.000   0.000   0.000   0.000  -0.000  -0.000   0.000  -0.000   0.000   0.000   1.180  -0.358  -0.000   0.000   0.000  -0.000
  0.000   0.000  -0.000   0.000   0.000  -0.000  -0.000  -0.000   0.000   0.000  -0.358   0.155   0.000   0.000  -0.000   0.000
  0.000   0.000   0.000   0.029   0.000  -0.000  -0.000   0.000  -0.009  -0.000   0.000   0.000   0.206   0.000  -0.000  -0.015
  0.029  -0.000   0.000   0.000  -0.000  -0.009   0.000  -0.000   0.000   0.000   0.000   0.000  -0.000   0.206   0.000   0.000
  0.000   0.029   0.000   0.000  -0.000   0.000  -0.009   0.000  -0.000  -0.000   0.000   0.000   0.000  -0.000   0.206   0.000
  0.000   0.000   0.000  -0.000   0.000  -0.000   0.000  -0.000   0.003   0.000   0.000  -0.000  -0.015  -0.000   0.000   0.001
 -0.000   0.000   0.000   0.000  -0.000   0.003   0.000   0.000  -0.000  -0.000   0.000  -0.000  -0.000  -0.015   0.000  -0.000
  0.000  -0.000   0.000   0.000   0.000   0.000   0.003   0.000   0.000   0.000   0.000   0.000   0.000   0.000  -0.015   0.000
 total augmentation occupancy for first ion, spin component:           2
  0.018   0.000  -0.000  -0.000  -0.000  -0.042  -0.000   0.000   0.000   0.000  -0.000   0.000   0.000  -0.027  -0.000   0.000
 -0.000   0.018   0.000   0.000  -0.000   0.000  -0.042  -0.000   0.000  -0.000  -0.000   0.000  -0.000  -0.000  -0.027   0.000
 -0.000  -0.000   0.100  -0.000   0.000   0.000   0.000  -0.068  -0.000   0.000  -0.000  -0.000   0.000   0.000   0.000   0.000
  0.000   0.000   0.000   0.018   0.000  -0.000   0.000   0.000  -0.042  -0.000   0.000   0.000  -0.027  -0.000  -0.000  -0.002
  0.000  -0.000  -0.000  -0.000   0.100   0.000  -0.000   0.000  -0.000  -0.068   0.000   0.000   0.000  -0.000   0.000   0.000
 -0.042  -0.000   0.000   0.000  -0.000   0.013   0.000  -0.000  -0.000  -0.000   0.000   0.000  -0.000   0.016   0.000   0.000
  0.000  -0.042   0.000   0.000   0.000  -0.000   0.013  -0.000   0.000   0.000   0.000  -0.000   0.000  -0.000   0.016   0.000
 -0.000  -0.000  -0.068   0.000  -0.000  -0.000  -0.000   0.006  -0.000  -0.000   0.000  -0.000  -0.000   0.000   0.000   0.000
 -0.000  -0.000  -0.000  -0.042   0.000  -0.000   0.000   0.000   0.013  -0.000   0.000   0.000   0.016   0.000  -0.000  -0.001
 -0.000   0.000   0.000  -0.000  -0.068  -0.000  -0.000  -0.000  -0.000   0.006   0.000  -0.000  -0.000   0.000   0.000  -0.000
  0.000  -0.000  -0.000   0.000   0.000  -0.000  -0.000  -0.000   0.000   0.000  -0.042   0.011   0.000   0.000  -0.000   0.000
 -0.000  -0.000  -0.000   0.000   0.000  -0.000   0.000   0.000   0.000   0.000   0.011  -0.006  -0.000  -0.000   0.000   0.000
  0.000  -0.000   0.000  -0.027   0.000  -0.000   0.000  -0.000   0.016  -0.000   0.000   0.000  -0.007  -0.000   0.000   0.000
 -0.027  -0.000  -0.000   0.000   0.000   0.016  -0.000   0.000   0.000  -0.000   0.000  -0.000   0.000  -0.007   0.000   0.000
 -0.000  -0.027  -0.000   0.000  -0.000   0.000   0.016  -0.000  -0.000  -0.000  -0.000  -0.000   0.000   0.000  -0.007  -0.000
 -0.000   0.000  -0.000  -0.002  -0.000   0.000  -0.000   0.000  -0.001  -0.000   0.000   0.000   0.000   0.000   0.000  -0.000
 -0.002   0.000  -0.000   0.000  -0.000  -0.001   0.000   0.000  -0.000   0.000  -0.000   0.000   0.000   0.000   0.000   0.000
 -0.000  -0.002   0.000  -0.000  -0.000   0.000  -0.001  -0.000   0.000   0.000   0.000  -0.000   0.000   0.000   0.000   0.000


------------------------ aborting loop because EDIFF is reached ----------------------------------------


 


 total charge     
 
# of ion       s       p       d       tot
------------------------------------------
    1        0.460   0.470   8.412   9.343
    2        0.460   0.470   8.412   9.343
    3        0.332   0.336   5.010   5.677
    4        1.068   1.319   0.187   2.575
--------------------------------------------------
tot          2.321   2.596  22.021  26.938
 


 magnetization (x)
 
# of ion       s       p       d       tot
------------------------------------------
    1       -0.016  -0.014   0.368   0.338
    2       -0.016  -0.014   0.368   0.338
    3        0.030   0.018   3.343   3.390
    4       -0.007  -0.064  -0.004  -0.075
--------------------------------------------------
tot         -0.010  -0.075   4.076   3.991
 
    CHARGE:  cpu time    0.1480: real time    0.1504
    FORLOC:  cpu time    0.0000: real time    0.0005
    FORNL :  cpu time    0.3240: real time    0.3240
    STRESS:  cpu time    0.7640: real time    0.7643
    FORCOR:  cpu time    0.0080: real time    0.0089
    FORHAR:  cpu time    0.0000: real time    0.0014
    MIXING:  cpu time    0.0000: real time    0.0007
    OFIELD:  cpu time    0.0000: real time    0.0000

  FORCE on cell =-STRESS in cart. coord.  units (eV):
  Direction    XX          YY          ZZ          XY          YZ          ZX
  --------------------------------------------------------------------------------------
  Alpha Z   208.29294   208.29294   208.29294
  Ewald    -730.42005  -730.42005  -730.42005    -0.00000    -0.00000    -0.00000
  Hartree   225.50337   225.50337   225.50337     0.00000     0.00000     0.00000
  E(xc)    -156.04359  -156.04359  -156.04359    -0.00001    -0.00001    -0.00001
  Local     157.41957   157.41957   157.41957     0.00015     0.00015     0.00015
  n-local   -86.82397   -84.97508   -85.97541     0.66791    -0.00975    -0.65845
  augment   136.57398   136.57398   136.57398    -0.00011    -0.00011    -0.00011
  Kinetic   243.28295   243.94207   246.56765     1.31380    -0.00511    -1.29379
  Fock        0.00000     0.00000     0.00000     0.00000     0.00000     0.00000
  -------------------------------------------------------------------------------------
  Total      -0.00104    -0.00104    -0.00104    -0.00000    -0.00000     0.00000
  in kB      -0.03411    -0.03411    -0.03411    -0.00000    -0.00000     0.00000
  external pressure =       -0.03 kB  Pullay stress =        0.00 kB


 VOLUME and BASIS-vectors are now :
 -----------------------------------------------------------------------------
  energy-cutoff  :      600.00
  volume of cell :       48.96
      direct lattice vectors                 reciprocal lattice vectors
     2.903577657  2.903577657  0.000000000     0.172201353  0.172201353 -0.172201353
     0.000000000  2.903577657  2.903577657    -0.172201353  0.172201353  0.172201353
     2.903577657  0.000000000  2.903577657     0.172201353 -0.172201353  0.172201353

  length of vectors
     4.106278902  4.106278902  4.106278902     0.298261492  0.298261492  0.298261492


 FORCES acting on ions
    electron-ion (+dipol)            ewald-force                    non-local-force                 convergence-correction
 -----------------------------------------------------------------------------------------------
   0.669E-06 0.653E-06 0.669E-06   0.682E-14 -.671E-14 0.884E-14   0.217E-17 0.198E-17 0.390E-17   -.286E-09 -.286E-09 -.286E-09
   -.669E-06 -.653E-06 -.669E-06   -.105E-13 0.918E-14 -.619E-14   -.260E-17 -.211E-17 -.173E-17   0.286E-09 0.286E-09 0.286E-09
   -.795E-12 -.213E-12 0.103E-11   0.740E-16 -.150E-14 -.842E-16   0.000E+00 0.000E+00 0.000E+00   -.156E-13 -.128E-13 -.285E-13
   -.131E-13 -.200E-13 -.108E-13   0.413E-14 -.168E-14 -.245E-14   0.000E+00 0.000E+00 0.000E+00   -.150E-14 -.101E-14 0.137E-14
 -----------------------------------------------------------------------------------------------
   0.883E-13 0.145E-11 0.213E-11   0.495E-15 -.702E-15 0.112E-15   -.434E-18 -.136E-18 0.217E-17   0.299E-13 0.195E-13 -.442E-13
 
 
 POSITION                                       TOTAL-FORCE (eV/Angst)
 -----------------------------------------------------------------------------------
      1.45179      1.45179      1.45179         0.000000     -0.000000      0.000000
      4.35537      4.35537      4.35537         0.000000      0.000000     -0.000000
      2.90358      2.90358      2.90358        -0.000000     -0.000000     -0.000000
      0.00000      0.00000      0.00000        -0.000000     -0.000000     -0.000000
 -----------------------------------------------------------------------------------
    total drift:                                0.000000      0.000000      0.000000


--------------------------------------------------------------------------------------------------------



  FREE ENERGIE OF THE ION-ELECTRON SYSTEM (eV)
  ---------------------------------------------------
  free  energy   TOTEN  =       -24.29644656 eV

  energy  without entropy=      -24.29863252  energy(sigma->0) =      -24.29717521
 


--------------------------------------------------------------------------------------------------------


    POTLOK:  cpu time    0.0120: real time    0.0129


--------------------------------------------------------------------------------------------------------


     LOOP+:  cpu time   57.8956: real time   59.9757
    4ORBIT:  cpu time    0.0000: real time    0.0000
 


 total charge     
 
# of ion       s       p       d       tot
------------------------------------------
    1        0.460   0.470   8.412   9.343
    2        0.460   0.470   8.412   9.343
    3        0.332   0.336   5.010   5.677
    4        1.068   1.319   0.187   2.575
--------------------------------------------------
tot          2.321   2.596  22.021  26.938
 


 magnetization (x)
 
# of ion       s       p       d       tot
------------------------------------------
    1       -0.016  -0.014   0.368   0.338
    2       -0.016  -0.014   0.368   0.338
    3        0.030   0.018   3.343   3.390
    4       -0.007  -0.064  -0.004  -0.075
--------------------------------------------------
tot         -0.010  -0.075   4.076   3.991
 

 total amount of memory used by VASP MPI-rank0    71973. kBytes
=======================================================================

   base      :      30000. kBytes
   nonl-proj :      27383. kBytes
   fftplans  :        467. kBytes
   grid      :       1233. kBytes
   one-center:         31. kBytes
   wavefun   :      12859. kBytes
 
  
  
 General timing and accounting informations for this job:
 ========================================================
  
                  Total CPU time used (sec):       60.616
                            User time (sec):       57.292
                          System time (sec):        3.324
                         Elapsed time (sec):       62.783
  
                   Maximum memory used (kb):       84188.
                   Average memory used (kb):           0.
  
                          Minor page faults:       125356
                          Major page faults:            0
                 Voluntary context switches:        43822
